V -t * -v 1.0a5 -a 0
A -t * -n 1 -p 0 -o 0x7fffffff -c 30 -a 1
A -t * -h 1 -m 1073741823 -s 0
n -t * -a 0 -s 0 -S UP -v circle -c black -i black
n -t * -a 1 -s 1 -S UP -v circle -c black -i black
l -t * -s 0 -d 1 -S UP -r 5000000 -D 0.002 -c black
+ -t 0.1 -s 0 -d 1 -p tcp -e 40 -c 2 -i 0 -a 2 -x {0.0 1.0 0 ------- null}
- -t 0.1 -s 0 -d 1 -p tcp -e 40 -c 2 -i 0 -a 2 -x {0.0 1.0 0 ------- null}
h -t 0.1 -s 0 -d 1 -p tcp -e 40 -c 2 -i 0 -a 2 -x {0.0 1.0 -1 ------- null}
r -t 0.102064 -s 0 -d 1 -p tcp -e 40 -c 2 -i 0 -a 2 -x {0.0 1.0 0 ------- null}
+ -t 0.102064 -s 1 -d 0 -p ack -e 40 -c 2 -i 1 -a 2 -x {1.0 0.0 0 ------- null}
- -t 0.102064 -s 1 -d 0 -p ack -e 40 -c 2 -i 1 -a 2 -x {1.0 0.0 0 ------- null}
h -t 0.102064 -s 1 -d 0 -p ack -e 40 -c 2 -i 1 -a 2 -x {1.0 0.0 -1 ------- null}
r -t 0.104128 -s 1 -d 0 -p ack -e 40 -c 2 -i 1 -a 2 -x {1.0 0.0 0 ------- null}
+ -t 0.104128 -s 0 -d 1 -p tcp -e 1040 -c 2 -i 2 -a 2 -x {0.0 1.0 1 ------- null}
- -t 0.104128 -s 0 -d 1 -p tcp -e 1040 -c 2 -i 2 -a 2 -x {0.0 1.0 1 ------- null}
h -t 0.104128 -s 0 -d 1 -p tcp -e 1040 -c 2 -i 2 -a 2 -x {0.0 1.0 -1 ------- null}
+ -t 0.104128 -s 0 -d 1 -p tcp -e 1040 -c 2 -i 3 -a 2 -x {0.0 1.0 2 ------- null}
- -t 0.105792 -s 0 -d 1 -p tcp -e 1040 -c 2 -i 3 -a 2 -x {0.0 1.0 2 ------- null}
h -t 0.105792 -s 0 -d 1 -p tcp -e 1040 -c 2 -i 3 -a 2 -x {0.0 1.0 -1 ------- null}
r -t 0.107792 -s 0 -d 1 -p tcp -e 1040 -c 2 -i 2 -a 2 -x {0.0 1.0 1 ------- null}
+ -t 0.107792 -s 1 -d 0 -p ack -e 40 -c 2 -i 4 -a 2 -x {1.0 0.0 1 ------- null}
- -t 0.107792 -s 1 -d 0 -p ack -e 40 -c 2 -i 4 -a 2 -x {1.0 0.0 1 ------- null}
h -t 0.107792 -s 1 -d 0 -p ack -e 40 -c 2 -i 4 -a 2 -x {1.0 0.0 -1 ------- null}
r -t 0.109456 -s 0 -d 1 -p tcp -e 1040 -c 2 -i 3 -a 2 -x {0.0 1.0 2 ------- null}
+ -t 0.109456 -s 1 -d 0 -p ack -e 40 -c 2 -i 5 -a 2 -x {1.0 0.0 2 ------- null}
- -t 0.109456 -s 1 -d 0 -p ack -e 40 -c 2 -i 5 -a 2 -x {1.0 0.0 2 ------- null}
h -t 0.109456 -s 1 -d 0 -p ack -e 40 -c 2 -i 5 -a 2 -x {1.0 0.0 -1 ------- null}
r -t 0.109856 -s 1 -d 0 -p ack -e 40 -c 2 -i 4 -a 2 -x {1.0 0.0 1 ------- null}
+ -t 0.109856 -s 0 -d 1 -p tcp -e 1040 -c 2 -i 6 -a 2 -x {0.0 1.0 3 ------- null}
- -t 0.109856 -s 0 -d 1 -p tcp -e 1040 -c 2 -i 6 -a 2 -x {0.0 1.0 3 ------- null}
h -t 0.109856 -s 0 -d 1 -p tcp -e 1040 -c 2 -i 6 -a 2 -x {0.0 1.0 -1 ------- null}
+ -t 0.109856 -s 0 -d 1 -p tcp -e 1040 -c 2 -i 7 -a 2 -x {0.0 1.0 4 ------- null}
r -t 0.11152 -s 1 -d 0 -p ack -e 40 -c 2 -i 5 -a 2 -x {1.0 0.0 2 ------- null}
+ -t 0.11152 -s 0 -d 1 -p tcp -e 1040 -c 2 -i 8 -a 2 -x {0.0 1.0 5 ------- null}
+ -t 0.11152 -s 0 -d 1 -p tcp -e 1040 -c 2 -i 9 -a 2 -x {0.0 1.0 6 ------- null}
- -t 0.11152 -s 0 -d 1 -p tcp -e 1040 -c 2 -i 7 -a 2 -x {0.0 1.0 4 ------- null}
h -t 0.11152 -s 0 -d 1 -p tcp -e 1040 -c 2 -i 7 -a 2 -x {0.0 1.0 -1 ------- null}
- -t 0.113184 -s 0 -d 1 -p tcp -e 1040 -c 2 -i 8 -a 2 -x {0.0 1.0 5 ------- null}
h -t 0.113184 -s 0 -d 1 -p tcp -e 1040 -c 2 -i 8 -a 2 -x {0.0 1.0 -1 ------- null}
r -t 0.11352 -s 0 -d 1 -p tcp -e 1040 -c 2 -i 6 -a 2 -x {0.0 1.0 3 ------- null}
+ -t 0.11352 -s 1 -d 0 -p ack -e 40 -c 2 -i 10 -a 2 -x {1.0 0.0 3 ------- null}
- -t 0.11352 -s 1 -d 0 -p ack -e 40 -c 2 -i 10 -a 2 -x {1.0 0.0 3 ------- null}
h -t 0.11352 -s 1 -d 0 -p ack -e 40 -c 2 -i 10 -a 2 -x {1.0 0.0 -1 ------- null}
- -t 0.114848 -s 0 -d 1 -p tcp -e 1040 -c 2 -i 9 -a 2 -x {0.0 1.0 6 ------- null}
h -t 0.114848 -s 0 -d 1 -p tcp -e 1040 -c 2 -i 9 -a 2 -x {0.0 1.0 -1 ------- null}
r -t 0.115184 -s 0 -d 1 -p tcp -e 1040 -c 2 -i 7 -a 2 -x {0.0 1.0 4 ------- null}
+ -t 0.115184 -s 1 -d 0 -p ack -e 40 -c 2 -i 11 -a 2 -x {1.0 0.0 4 ------- null}
- -t 0.115184 -s 1 -d 0 -p ack -e 40 -c 2 -i 11 -a 2 -x {1.0 0.0 4 ------- null}
h -t 0.115184 -s 1 -d 0 -p ack -e 40 -c 2 -i 11 -a 2 -x {1.0 0.0 -1 ------- null}
r -t 0.115584 -s 1 -d 0 -p ack -e 40 -c 2 -i 10 -a 2 -x {1.0 0.0 3 ------- null}
+ -t 0.115584 -s 0 -d 1 -p tcp -e 1040 -c 2 -i 12 -a 2 -x {0.0 1.0 7 ------- null}
+ -t 0.115584 -s 0 -d 1 -p tcp -e 1040 -c 2 -i 13 -a 2 -x {0.0 1.0 8 ------- null}
- -t 0.116512 -s 0 -d 1 -p tcp -e 1040 -c 2 -i 12 -a 2 -x {0.0 1.0 7 ------- null}
h -t 0.116512 -s 0 -d 1 -p tcp -e 1040 -c 2 -i 12 -a 2 -x {0.0 1.0 -1 ------- null}
r -t 0.116848 -s 0 -d 1 -p tcp -e 1040 -c 2 -i 8 -a 2 -x {0.0 1.0 5 ------- null}
+ -t 0.116848 -s 1 -d 0 -p ack -e 40 -c 2 -i 14 -a 2 -x {1.0 0.0 5 ------- null}
- -t 0.116848 -s 1 -d 0 -p ack -e 40 -c 2 -i 14 -a 2 -x {1.0 0.0 5 ------- null}
h -t 0.116848 -s 1 -d 0 -p ack -e 40 -c 2 -i 14 -a 2 -x {1.0 0.0 -1 ------- null}
r -t 0.117248 -s 1 -d 0 -p ack -e 40 -c 2 -i 11 -a 2 -x {1.0 0.0 4 ------- null}
+ -t 0.117248 -s 0 -d 1 -p tcp -e 1040 -c 2 -i 15 -a 2 -x {0.0 1.0 9 ------- null}
+ -t 0.117248 -s 0 -d 1 -p tcp -e 1040 -c 2 -i 16 -a 2 -x {0.0 1.0 10 ------- null}
- -t 0.118176 -s 0 -d 1 -p tcp -e 1040 -c 2 -i 13 -a 2 -x {0.0 1.0 8 ------- null}
h -t 0.118176 -s 0 -d 1 -p tcp -e 1040 -c 2 -i 13 -a 2 -x {0.0 1.0 -1 ------- null}
r -t 0.118512 -s 0 -d 1 -p tcp -e 1040 -c 2 -i 9 -a 2 -x {0.0 1.0 6 ------- null}
+ -t 0.118512 -s 1 -d 0 -p ack -e 40 -c 2 -i 17 -a 2 -x {1.0 0.0 6 ------- null}
- -t 0.118512 -s 1 -d 0 -p ack -e 40 -c 2 -i 17 -a 2 -x {1.0 0.0 6 ------- null}
h -t 0.118512 -s 1 -d 0 -p ack -e 40 -c 2 -i 17 -a 2 -x {1.0 0.0 -1 ------- null}
r -t 0.118912 -s 1 -d 0 -p ack -e 40 -c 2 -i 14 -a 2 -x {1.0 0.0 5 ------- null}
+ -t 0.118912 -s 0 -d 1 -p tcp -e 1040 -c 2 -i 18 -a 2 -x {0.0 1.0 11 ------- null}
+ -t 0.118912 -s 0 -d 1 -p tcp -e 1040 -c 2 -i 19 -a 2 -x {0.0 1.0 12 ------- null}
- -t 0.11984 -s 0 -d 1 -p tcp -e 1040 -c 2 -i 15 -a 2 -x {0.0 1.0 9 ------- null}
h -t 0.11984 -s 0 -d 1 -p tcp -e 1040 -c 2 -i 15 -a 2 -x {0.0 1.0 -1 ------- null}
r -t 0.120176 -s 0 -d 1 -p tcp -e 1040 -c 2 -i 12 -a 2 -x {0.0 1.0 7 ------- null}
+ -t 0.120176 -s 1 -d 0 -p ack -e 40 -c 2 -i 20 -a 2 -x {1.0 0.0 7 ------- null}
- -t 0.120176 -s 1 -d 0 -p ack -e 40 -c 2 -i 20 -a 2 -x {1.0 0.0 7 ------- null}
h -t 0.120176 -s 1 -d 0 -p ack -e 40 -c 2 -i 20 -a 2 -x {1.0 0.0 -1 ------- null}
r -t 0.120576 -s 1 -d 0 -p ack -e 40 -c 2 -i 17 -a 2 -x {1.0 0.0 6 ------- null}
+ -t 0.120576 -s 0 -d 1 -p tcp -e 1040 -c 2 -i 21 -a 2 -x {0.0 1.0 13 ------- null}
+ -t 0.120576 -s 0 -d 1 -p tcp -e 1040 -c 2 -i 22 -a 2 -x {0.0 1.0 14 ------- null}
- -t 0.121504 -s 0 -d 1 -p tcp -e 1040 -c 2 -i 16 -a 2 -x {0.0 1.0 10 ------- null}
h -t 0.121504 -s 0 -d 1 -p tcp -e 1040 -c 2 -i 16 -a 2 -x {0.0 1.0 -1 ------- null}
r -t 0.12184 -s 0 -d 1 -p tcp -e 1040 -c 2 -i 13 -a 2 -x {0.0 1.0 8 ------- null}
+ -t 0.12184 -s 1 -d 0 -p ack -e 40 -c 2 -i 23 -a 2 -x {1.0 0.0 8 ------- null}
- -t 0.12184 -s 1 -d 0 -p ack -e 40 -c 2 -i 23 -a 2 -x {1.0 0.0 8 ------- null}
h -t 0.12184 -s 1 -d 0 -p ack -e 40 -c 2 -i 23 -a 2 -x {1.0 0.0 -1 ------- null}
r -t 0.12224 -s 1 -d 0 -p ack -e 40 -c 2 -i 20 -a 2 -x {1.0 0.0 7 ------- null}
+ -t 0.12224 -s 0 -d 1 -p tcp -e 1040 -c 2 -i 24 -a 2 -x {0.0 1.0 15 ------- null}
+ -t 0.12224 -s 0 -d 1 -p tcp -e 1040 -c 2 -i 25 -a 2 -x {0.0 1.0 16 ------- null}
- -t 0.123168 -s 0 -d 1 -p tcp -e 1040 -c 2 -i 18 -a 2 -x {0.0 1.0 11 ------- null}
h -t 0.123168 -s 0 -d 1 -p tcp -e 1040 -c 2 -i 18 -a 2 -x {0.0 1.0 -1 ------- null}
r -t 0.123504 -s 0 -d 1 -p tcp -e 1040 -c 2 -i 15 -a 2 -x {0.0 1.0 9 ------- null}
+ -t 0.123504 -s 1 -d 0 -p ack -e 40 -c 2 -i 26 -a 2 -x {1.0 0.0 9 ------- null}
- -t 0.123504 -s 1 -d 0 -p ack -e 40 -c 2 -i 26 -a 2 -x {1.0 0.0 9 ------- null}
h -t 0.123504 -s 1 -d 0 -p ack -e 40 -c 2 -i 26 -a 2 -x {1.0 0.0 -1 ------- null}
r -t 0.123904 -s 1 -d 0 -p ack -e 40 -c 2 -i 23 -a 2 -x {1.0 0.0 8 ------- null}
+ -t 0.123904 -s 0 -d 1 -p tcp -e 1040 -c 2 -i 27 -a 2 -x {0.0 1.0 17 ------- null}
+ -t 0.123904 -s 0 -d 1 -p tcp -e 1040 -c 2 -i 28 -a 2 -x {0.0 1.0 18 ------- null}
- -t 0.124832 -s 0 -d 1 -p tcp -e 1040 -c 2 -i 19 -a 2 -x {0.0 1.0 12 ------- null}
h -t 0.124832 -s 0 -d 1 -p tcp -e 1040 -c 2 -i 19 -a 2 -x {0.0 1.0 -1 ------- null}
r -t 0.125168 -s 0 -d 1 -p tcp -e 1040 -c 2 -i 16 -a 2 -x {0.0 1.0 10 ------- null}
+ -t 0.125168 -s 1 -d 0 -p ack -e 40 -c 2 -i 29 -a 2 -x {1.0 0.0 10 ------- null}
- -t 0.125168 -s 1 -d 0 -p ack -e 40 -c 2 -i 29 -a 2 -x {1.0 0.0 10 ------- null}
h -t 0.125168 -s 1 -d 0 -p ack -e 40 -c 2 -i 29 -a 2 -x {1.0 0.0 -1 ------- null}
r -t 0.125568 -s 1 -d 0 -p ack -e 40 -c 2 -i 26 -a 2 -x {1.0 0.0 9 ------- null}
+ -t 0.125568 -s 0 -d 1 -p tcp -e 1040 -c 2 -i 30 -a 2 -x {0.0 1.0 19 ------- null}
+ -t 0.125568 -s 0 -d 1 -p tcp -e 1040 -c 2 -i 31 -a 2 -x {0.0 1.0 20 ------- null}
- -t 0.126496 -s 0 -d 1 -p tcp -e 1040 -c 2 -i 21 -a 2 -x {0.0 1.0 13 ------- null}
h -t 0.126496 -s 0 -d 1 -p tcp -e 1040 -c 2 -i 21 -a 2 -x {0.0 1.0 -1 ------- null}
r -t 0.126832 -s 0 -d 1 -p tcp -e 1040 -c 2 -i 18 -a 2 -x {0.0 1.0 11 ------- null}
+ -t 0.126832 -s 1 -d 0 -p ack -e 40 -c 2 -i 32 -a 2 -x {1.0 0.0 11 ------- null}
- -t 0.126832 -s 1 -d 0 -p ack -e 40 -c 2 -i 32 -a 2 -x {1.0 0.0 11 ------- null}
h -t 0.126832 -s 1 -d 0 -p ack -e 40 -c 2 -i 32 -a 2 -x {1.0 0.0 -1 ------- null}
r -t 0.127232 -s 1 -d 0 -p ack -e 40 -c 2 -i 29 -a 2 -x {1.0 0.0 10 ------- null}
+ -t 0.127232 -s 0 -d 1 -p tcp -e 1040 -c 2 -i 33 -a 2 -x {0.0 1.0 21 ------- null}
+ -t 0.127232 -s 0 -d 1 -p tcp -e 1040 -c 2 -i 34 -a 2 -x {0.0 1.0 22 ------- null}
- -t 0.12816 -s 0 -d 1 -p tcp -e 1040 -c 2 -i 22 -a 2 -x {0.0 1.0 14 ------- null}
h -t 0.12816 -s 0 -d 1 -p tcp -e 1040 -c 2 -i 22 -a 2 -x {0.0 1.0 -1 ------- null}
r -t 0.128496 -s 0 -d 1 -p tcp -e 1040 -c 2 -i 19 -a 2 -x {0.0 1.0 12 ------- null}
+ -t 0.128496 -s 1 -d 0 -p ack -e 40 -c 2 -i 35 -a 2 -x {1.0 0.0 12 ------- null}
- -t 0.128496 -s 1 -d 0 -p ack -e 40 -c 2 -i 35 -a 2 -x {1.0 0.0 12 ------- null}
h -t 0.128496 -s 1 -d 0 -p ack -e 40 -c 2 -i 35 -a 2 -x {1.0 0.0 -1 ------- null}
r -t 0.128896 -s 1 -d 0 -p ack -e 40 -c 2 -i 32 -a 2 -x {1.0 0.0 11 ------- null}
+ -t 0.128896 -s 0 -d 1 -p tcp -e 1040 -c 2 -i 36 -a 2 -x {0.0 1.0 23 ------- null}
+ -t 0.128896 -s 0 -d 1 -p tcp -e 1040 -c 2 -i 37 -a 2 -x {0.0 1.0 24 ------- null}
- -t 0.129824 -s 0 -d 1 -p tcp -e 1040 -c 2 -i 24 -a 2 -x {0.0 1.0 15 ------- null}
h -t 0.129824 -s 0 -d 1 -p tcp -e 1040 -c 2 -i 24 -a 2 -x {0.0 1.0 -1 ------- null}
r -t 0.13016 -s 0 -d 1 -p tcp -e 1040 -c 2 -i 21 -a 2 -x {0.0 1.0 13 ------- null}
+ -t 0.13016 -s 1 -d 0 -p ack -e 40 -c 2 -i 38 -a 2 -x {1.0 0.0 13 ------- null}
- -t 0.13016 -s 1 -d 0 -p ack -e 40 -c 2 -i 38 -a 2 -x {1.0 0.0 13 ------- null}
h -t 0.13016 -s 1 -d 0 -p ack -e 40 -c 2 -i 38 -a 2 -x {1.0 0.0 -1 ------- null}
r -t 0.13056 -s 1 -d 0 -p ack -e 40 -c 2 -i 35 -a 2 -x {1.0 0.0 12 ------- null}
+ -t 0.13056 -s 0 -d 1 -p tcp -e 1040 -c 2 -i 39 -a 2 -x {0.0 1.0 25 ------- null}
+ -t 0.13056 -s 0 -d 1 -p tcp -e 1040 -c 2 -i 40 -a 2 -x {0.0 1.0 26 ------- null}
- -t 0.131488 -s 0 -d 1 -p tcp -e 1040 -c 2 -i 25 -a 2 -x {0.0 1.0 16 ------- null}
h -t 0.131488 -s 0 -d 1 -p tcp -e 1040 -c 2 -i 25 -a 2 -x {0.0 1.0 -1 ------- null}
r -t 0.131824 -s 0 -d 1 -p tcp -e 1040 -c 2 -i 22 -a 2 -x {0.0 1.0 14 ------- null}
+ -t 0.131824 -s 1 -d 0 -p ack -e 40 -c 2 -i 41 -a 2 -x {1.0 0.0 14 ------- null}
- -t 0.131824 -s 1 -d 0 -p ack -e 40 -c 2 -i 41 -a 2 -x {1.0 0.0 14 ------- null}
h -t 0.131824 -s 1 -d 0 -p ack -e 40 -c 2 -i 41 -a 2 -x {1.0 0.0 -1 ------- null}
r -t 0.132224 -s 1 -d 0 -p ack -e 40 -c 2 -i 38 -a 2 -x {1.0 0.0 13 ------- null}
+ -t 0.132224 -s 0 -d 1 -p tcp -e 1040 -c 2 -i 42 -a 2 -x {0.0 1.0 27 ------- null}
+ -t 0.132224 -s 0 -d 1 -p tcp -e 1040 -c 2 -i 43 -a 2 -x {0.0 1.0 28 ------- null}
- -t 0.133152 -s 0 -d 1 -p tcp -e 1040 -c 2 -i 27 -a 2 -x {0.0 1.0 17 ------- null}
h -t 0.133152 -s 0 -d 1 -p tcp -e 1040 -c 2 -i 27 -a 2 -x {0.0 1.0 -1 ------- null}
r -t 0.133488 -s 0 -d 1 -p tcp -e 1040 -c 2 -i 24 -a 2 -x {0.0 1.0 15 ------- null}
+ -t 0.133488 -s 1 -d 0 -p ack -e 40 -c 2 -i 44 -a 2 -x {1.0 0.0 15 ------- null}
- -t 0.133488 -s 1 -d 0 -p ack -e 40 -c 2 -i 44 -a 2 -x {1.0 0.0 15 ------- null}
h -t 0.133488 -s 1 -d 0 -p ack -e 40 -c 2 -i 44 -a 2 -x {1.0 0.0 -1 ------- null}
r -t 0.133888 -s 1 -d 0 -p ack -e 40 -c 2 -i 41 -a 2 -x {1.0 0.0 14 ------- null}
+ -t 0.133888 -s 0 -d 1 -p tcp -e 1040 -c 2 -i 45 -a 2 -x {0.0 1.0 29 ------- null}
+ -t 0.133888 -s 0 -d 1 -p tcp -e 1040 -c 2 -i 46 -a 2 -x {0.0 1.0 30 ------- null}
- -t 0.134816 -s 0 -d 1 -p tcp -e 1040 -c 2 -i 28 -a 2 -x {0.0 1.0 18 ------- null}
h -t 0.134816 -s 0 -d 1 -p tcp -e 1040 -c 2 -i 28 -a 2 -x {0.0 1.0 -1 ------- null}
r -t 0.135152 -s 0 -d 1 -p tcp -e 1040 -c 2 -i 25 -a 2 -x {0.0 1.0 16 ------- null}
+ -t 0.135152 -s 1 -d 0 -p ack -e 40 -c 2 -i 47 -a 2 -x {1.0 0.0 16 ------- null}
- -t 0.135152 -s 1 -d 0 -p ack -e 40 -c 2 -i 47 -a 2 -x {1.0 0.0 16 ------- null}
h -t 0.135152 -s 1 -d 0 -p ack -e 40 -c 2 -i 47 -a 2 -x {1.0 0.0 -1 ------- null}
r -t 0.135552 -s 1 -d 0 -p ack -e 40 -c 2 -i 44 -a 2 -x {1.0 0.0 15 ------- null}
+ -t 0.135552 -s 0 -d 1 -p tcp -e 1040 -c 2 -i 48 -a 2 -x {0.0 1.0 31 ------- null}
+ -t 0.135552 -s 0 -d 1 -p tcp -e 1040 -c 2 -i 49 -a 2 -x {0.0 1.0 32 ------- null}
- -t 0.13648 -s 0 -d 1 -p tcp -e 1040 -c 2 -i 30 -a 2 -x {0.0 1.0 19 ------- null}
h -t 0.13648 -s 0 -d 1 -p tcp -e 1040 -c 2 -i 30 -a 2 -x {0.0 1.0 -1 ------- null}
r -t 0.136816 -s 0 -d 1 -p tcp -e 1040 -c 2 -i 27 -a 2 -x {0.0 1.0 17 ------- null}
+ -t 0.136816 -s 1 -d 0 -p ack -e 40 -c 2 -i 50 -a 2 -x {1.0 0.0 17 ------- null}
- -t 0.136816 -s 1 -d 0 -p ack -e 40 -c 2 -i 50 -a 2 -x {1.0 0.0 17 ------- null}
h -t 0.136816 -s 1 -d 0 -p ack -e 40 -c 2 -i 50 -a 2 -x {1.0 0.0 -1 ------- null}
r -t 0.137216 -s 1 -d 0 -p ack -e 40 -c 2 -i 47 -a 2 -x {1.0 0.0 16 ------- null}
+ -t 0.137216 -s 0 -d 1 -p tcp -e 1040 -c 2 -i 51 -a 2 -x {0.0 1.0 33 ------- null}
+ -t 0.137216 -s 0 -d 1 -p tcp -e 1040 -c 2 -i 52 -a 2 -x {0.0 1.0 34 ------- null}
- -t 0.138144 -s 0 -d 1 -p tcp -e 1040 -c 2 -i 31 -a 2 -x {0.0 1.0 20 ------- null}
h -t 0.138144 -s 0 -d 1 -p tcp -e 1040 -c 2 -i 31 -a 2 -x {0.0 1.0 -1 ------- null}
r -t 0.13848 -s 0 -d 1 -p tcp -e 1040 -c 2 -i 28 -a 2 -x {0.0 1.0 18 ------- null}
+ -t 0.13848 -s 1 -d 0 -p ack -e 40 -c 2 -i 53 -a 2 -x {1.0 0.0 18 ------- null}
- -t 0.13848 -s 1 -d 0 -p ack -e 40 -c 2 -i 53 -a 2 -x {1.0 0.0 18 ------- null}
h -t 0.13848 -s 1 -d 0 -p ack -e 40 -c 2 -i 53 -a 2 -x {1.0 0.0 -1 ------- null}
r -t 0.13888 -s 1 -d 0 -p ack -e 40 -c 2 -i 50 -a 2 -x {1.0 0.0 17 ------- null}
+ -t 0.13888 -s 0 -d 1 -p tcp -e 1040 -c 2 -i 54 -a 2 -x {0.0 1.0 35 ------- null}
+ -t 0.13888 -s 0 -d 1 -p tcp -e 1040 -c 2 -i 55 -a 2 -x {0.0 1.0 36 ------- null}
- -t 0.139808 -s 0 -d 1 -p tcp -e 1040 -c 2 -i 33 -a 2 -x {0.0 1.0 21 ------- null}
h -t 0.139808 -s 0 -d 1 -p tcp -e 1040 -c 2 -i 33 -a 2 -x {0.0 1.0 -1 ------- null}
r -t 0.140144 -s 0 -d 1 -p tcp -e 1040 -c 2 -i 30 -a 2 -x {0.0 1.0 19 ------- null}
+ -t 0.140144 -s 1 -d 0 -p ack -e 40 -c 2 -i 56 -a 2 -x {1.0 0.0 19 ------- null}
- -t 0.140144 -s 1 -d 0 -p ack -e 40 -c 2 -i 56 -a 2 -x {1.0 0.0 19 ------- null}
h -t 0.140144 -s 1 -d 0 -p ack -e 40 -c 2 -i 56 -a 2 -x {1.0 0.0 -1 ------- null}
r -t 0.140544 -s 1 -d 0 -p ack -e 40 -c 2 -i 53 -a 2 -x {1.0 0.0 18 ------- null}
+ -t 0.140544 -s 0 -d 1 -p tcp -e 1040 -c 2 -i 57 -a 2 -x {0.0 1.0 37 ------- null}
+ -t 0.140544 -s 0 -d 1 -p tcp -e 1040 -c 2 -i 58 -a 2 -x {0.0 1.0 38 ------- null}
- -t 0.141472 -s 0 -d 1 -p tcp -e 1040 -c 2 -i 34 -a 2 -x {0.0 1.0 22 ------- null}
h -t 0.141472 -s 0 -d 1 -p tcp -e 1040 -c 2 -i 34 -a 2 -x {0.0 1.0 -1 ------- null}
r -t 0.141808 -s 0 -d 1 -p tcp -e 1040 -c 2 -i 31 -a 2 -x {0.0 1.0 20 ------- null}
+ -t 0.141808 -s 1 -d 0 -p ack -e 40 -c 2 -i 59 -a 2 -x {1.0 0.0 20 ------- null}
- -t 0.141808 -s 1 -d 0 -p ack -e 40 -c 2 -i 59 -a 2 -x {1.0 0.0 20 ------- null}
h -t 0.141808 -s 1 -d 0 -p ack -e 40 -c 2 -i 59 -a 2 -x {1.0 0.0 -1 ------- null}
r -t 0.142208 -s 1 -d 0 -p ack -e 40 -c 2 -i 56 -a 2 -x {1.0 0.0 19 ------- null}
+ -t 0.142208 -s 0 -d 1 -p tcp -e 1040 -c 2 -i 60 -a 2 -x {0.0 1.0 39 ------- null}
- -t 0.143136 -s 0 -d 1 -p tcp -e 1040 -c 2 -i 36 -a 2 -x {0.0 1.0 23 ------- null}
h -t 0.143136 -s 0 -d 1 -p tcp -e 1040 -c 2 -i 36 -a 2 -x {0.0 1.0 -1 ------- null}
r -t 0.143472 -s 0 -d 1 -p tcp -e 1040 -c 2 -i 33 -a 2 -x {0.0 1.0 21 ------- null}
+ -t 0.143472 -s 1 -d 0 -p ack -e 40 -c 2 -i 61 -a 2 -x {1.0 0.0 21 ------- null}
- -t 0.143472 -s 1 -d 0 -p ack -e 40 -c 2 -i 61 -a 2 -x {1.0 0.0 21 ------- null}
h -t 0.143472 -s 1 -d 0 -p ack -e 40 -c 2 -i 61 -a 2 -x {1.0 0.0 -1 ------- null}
r -t 0.143872 -s 1 -d 0 -p ack -e 40 -c 2 -i 59 -a 2 -x {1.0 0.0 20 ------- null}
+ -t 0.143872 -s 0 -d 1 -p tcp -e 1040 -c 2 -i 62 -a 2 -x {0.0 1.0 40 ------- null}
- -t 0.1448 -s 0 -d 1 -p tcp -e 1040 -c 2 -i 37 -a 2 -x {0.0 1.0 24 ------- null}
h -t 0.1448 -s 0 -d 1 -p tcp -e 1040 -c 2 -i 37 -a 2 -x {0.0 1.0 -1 ------- null}
r -t 0.145136 -s 0 -d 1 -p tcp -e 1040 -c 2 -i 34 -a 2 -x {0.0 1.0 22 ------- null}
+ -t 0.145136 -s 1 -d 0 -p ack -e 40 -c 2 -i 63 -a 2 -x {1.0 0.0 22 ------- null}
- -t 0.145136 -s 1 -d 0 -p ack -e 40 -c 2 -i 63 -a 2 -x {1.0 0.0 22 ------- null}
h -t 0.145136 -s 1 -d 0 -p ack -e 40 -c 2 -i 63 -a 2 -x {1.0 0.0 -1 ------- null}
r -t 0.145536 -s 1 -d 0 -p ack -e 40 -c 2 -i 61 -a 2 -x {1.0 0.0 21 ------- null}
+ -t 0.145536 -s 0 -d 1 -p tcp -e 1040 -c 2 -i 64 -a 2 -x {0.0 1.0 41 ------- null}
- -t 0.146464 -s 0 -d 1 -p tcp -e 1040 -c 2 -i 39 -a 2 -x {0.0 1.0 25 ------- null}
h -t 0.146464 -s 0 -d 1 -p tcp -e 1040 -c 2 -i 39 -a 2 -x {0.0 1.0 -1 ------- null}
r -t 0.1468 -s 0 -d 1 -p tcp -e 1040 -c 2 -i 36 -a 2 -x {0.0 1.0 23 ------- null}
+ -t 0.1468 -s 1 -d 0 -p ack -e 40 -c 2 -i 65 -a 2 -x {1.0 0.0 23 ------- null}
- -t 0.1468 -s 1 -d 0 -p ack -e 40 -c 2 -i 65 -a 2 -x {1.0 0.0 23 ------- null}
h -t 0.1468 -s 1 -d 0 -p ack -e 40 -c 2 -i 65 -a 2 -x {1.0 0.0 -1 ------- null}
r -t 0.1472 -s 1 -d 0 -p ack -e 40 -c 2 -i 63 -a 2 -x {1.0 0.0 22 ------- null}
+ -t 0.1472 -s 0 -d 1 -p tcp -e 1040 -c 2 -i 66 -a 2 -x {0.0 1.0 42 ------- null}
- -t 0.148128 -s 0 -d 1 -p tcp -e 1040 -c 2 -i 40 -a 2 -x {0.0 1.0 26 ------- null}
h -t 0.148128 -s 0 -d 1 -p tcp -e 1040 -c 2 -i 40 -a 2 -x {0.0 1.0 -1 ------- null}
r -t 0.148464 -s 0 -d 1 -p tcp -e 1040 -c 2 -i 37 -a 2 -x {0.0 1.0 24 ------- null}
+ -t 0.148464 -s 1 -d 0 -p ack -e 40 -c 2 -i 67 -a 2 -x {1.0 0.0 24 ------- null}
- -t 0.148464 -s 1 -d 0 -p ack -e 40 -c 2 -i 67 -a 2 -x {1.0 0.0 24 ------- null}
h -t 0.148464 -s 1 -d 0 -p ack -e 40 -c 2 -i 67 -a 2 -x {1.0 0.0 -1 ------- null}
r -t 0.148864 -s 1 -d 0 -p ack -e 40 -c 2 -i 65 -a 2 -x {1.0 0.0 23 ------- null}
+ -t 0.148864 -s 0 -d 1 -p tcp -e 1040 -c 2 -i 68 -a 2 -x {0.0 1.0 43 ------- null}
- -t 0.149792 -s 0 -d 1 -p tcp -e 1040 -c 2 -i 42 -a 2 -x {0.0 1.0 27 ------- null}
h -t 0.149792 -s 0 -d 1 -p tcp -e 1040 -c 2 -i 42 -a 2 -x {0.0 1.0 -1 ------- null}
r -t 0.150128 -s 0 -d 1 -p tcp -e 1040 -c 2 -i 39 -a 2 -x {0.0 1.0 25 ------- null}
+ -t 0.150128 -s 1 -d 0 -p ack -e 40 -c 2 -i 69 -a 2 -x {1.0 0.0 25 ------- null}
- -t 0.150128 -s 1 -d 0 -p ack -e 40 -c 2 -i 69 -a 2 -x {1.0 0.0 25 ------- null}
h -t 0.150128 -s 1 -d 0 -p ack -e 40 -c 2 -i 69 -a 2 -x {1.0 0.0 -1 ------- null}
r -t 0.150528 -s 1 -d 0 -p ack -e 40 -c 2 -i 67 -a 2 -x {1.0 0.0 24 ------- null}
+ -t 0.150528 -s 0 -d 1 -p tcp -e 1040 -c 2 -i 70 -a 2 -x {0.0 1.0 44 ------- null}
- -t 0.151456 -s 0 -d 1 -p tcp -e 1040 -c 2 -i 43 -a 2 -x {0.0 1.0 28 ------- null}
h -t 0.151456 -s 0 -d 1 -p tcp -e 1040 -c 2 -i 43 -a 2 -x {0.0 1.0 -1 ------- null}
r -t 0.151792 -s 0 -d 1 -p tcp -e 1040 -c 2 -i 40 -a 2 -x {0.0 1.0 26 ------- null}
+ -t 0.151792 -s 1 -d 0 -p ack -e 40 -c 2 -i 71 -a 2 -x {1.0 0.0 26 ------- null}
- -t 0.151792 -s 1 -d 0 -p ack -e 40 -c 2 -i 71 -a 2 -x {1.0 0.0 26 ------- null}
h -t 0.151792 -s 1 -d 0 -p ack -e 40 -c 2 -i 71 -a 2 -x {1.0 0.0 -1 ------- null}
r -t 0.152192 -s 1 -d 0 -p ack -e 40 -c 2 -i 69 -a 2 -x {1.0 0.0 25 ------- null}
+ -t 0.152192 -s 0 -d 1 -p tcp -e 1040 -c 2 -i 72 -a 2 -x {0.0 1.0 45 ------- null}
- -t 0.15312 -s 0 -d 1 -p tcp -e 1040 -c 2 -i 45 -a 2 -x {0.0 1.0 29 ------- null}
h -t 0.15312 -s 0 -d 1 -p tcp -e 1040 -c 2 -i 45 -a 2 -x {0.0 1.0 -1 ------- null}
r -t 0.153456 -s 0 -d 1 -p tcp -e 1040 -c 2 -i 42 -a 2 -x {0.0 1.0 27 ------- null}
+ -t 0.153456 -s 1 -d 0 -p ack -e 40 -c 2 -i 73 -a 2 -x {1.0 0.0 27 ------- null}
- -t 0.153456 -s 1 -d 0 -p ack -e 40 -c 2 -i 73 -a 2 -x {1.0 0.0 27 ------- null}
h -t 0.153456 -s 1 -d 0 -p ack -e 40 -c 2 -i 73 -a 2 -x {1.0 0.0 -1 ------- null}
r -t 0.153856 -s 1 -d 0 -p ack -e 40 -c 2 -i 71 -a 2 -x {1.0 0.0 26 ------- null}
+ -t 0.153856 -s 0 -d 1 -p tcp -e 1040 -c 2 -i 74 -a 2 -x {0.0 1.0 46 ------- null}
- -t 0.154784 -s 0 -d 1 -p tcp -e 1040 -c 2 -i 46 -a 2 -x {0.0 1.0 30 ------- null}
h -t 0.154784 -s 0 -d 1 -p tcp -e 1040 -c 2 -i 46 -a 2 -x {0.0 1.0 -1 ------- null}
r -t 0.15512 -s 0 -d 1 -p tcp -e 1040 -c 2 -i 43 -a 2 -x {0.0 1.0 28 ------- null}
+ -t 0.15512 -s 1 -d 0 -p ack -e 40 -c 2 -i 75 -a 2 -x {1.0 0.0 28 ------- null}
- -t 0.15512 -s 1 -d 0 -p ack -e 40 -c 2 -i 75 -a 2 -x {1.0 0.0 28 ------- null}
h -t 0.15512 -s 1 -d 0 -p ack -e 40 -c 2 -i 75 -a 2 -x {1.0 0.0 -1 ------- null}
r -t 0.15552 -s 1 -d 0 -p ack -e 40 -c 2 -i 73 -a 2 -x {1.0 0.0 27 ------- null}
+ -t 0.15552 -s 0 -d 1 -p tcp -e 1040 -c 2 -i 76 -a 2 -x {0.0 1.0 47 ------- null}
- -t 0.156448 -s 0 -d 1 -p tcp -e 1040 -c 2 -i 48 -a 2 -x {0.0 1.0 31 ------- null}
h -t 0.156448 -s 0 -d 1 -p tcp -e 1040 -c 2 -i 48 -a 2 -x {0.0 1.0 -1 ------- null}
r -t 0.156784 -s 0 -d 1 -p tcp -e 1040 -c 2 -i 45 -a 2 -x {0.0 1.0 29 ------- null}
+ -t 0.156784 -s 1 -d 0 -p ack -e 40 -c 2 -i 77 -a 2 -x {1.0 0.0 29 ------- null}
- -t 0.156784 -s 1 -d 0 -p ack -e 40 -c 2 -i 77 -a 2 -x {1.0 0.0 29 ------- null}
h -t 0.156784 -s 1 -d 0 -p ack -e 40 -c 2 -i 77 -a 2 -x {1.0 0.0 -1 ------- null}
r -t 0.157184 -s 1 -d 0 -p ack -e 40 -c 2 -i 75 -a 2 -x {1.0 0.0 28 ------- null}
+ -t 0.157184 -s 0 -d 1 -p tcp -e 1040 -c 2 -i 78 -a 2 -x {0.0 1.0 48 ------- null}
- -t 0.158112 -s 0 -d 1 -p tcp -e 1040 -c 2 -i 49 -a 2 -x {0.0 1.0 32 ------- null}
h -t 0.158112 -s 0 -d 1 -p tcp -e 1040 -c 2 -i 49 -a 2 -x {0.0 1.0 -1 ------- null}
r -t 0.158448 -s 0 -d 1 -p tcp -e 1040 -c 2 -i 46 -a 2 -x {0.0 1.0 30 ------- null}
+ -t 0.158448 -s 1 -d 0 -p ack -e 40 -c 2 -i 79 -a 2 -x {1.0 0.0 30 ------- null}
- -t 0.158448 -s 1 -d 0 -p ack -e 40 -c 2 -i 79 -a 2 -x {1.0 0.0 30 ------- null}
h -t 0.158448 -s 1 -d 0 -p ack -e 40 -c 2 -i 79 -a 2 -x {1.0 0.0 -1 ------- null}
r -t 0.158848 -s 1 -d 0 -p ack -e 40 -c 2 -i 77 -a 2 -x {1.0 0.0 29 ------- null}
+ -t 0.158848 -s 0 -d 1 -p tcp -e 1040 -c 2 -i 80 -a 2 -x {0.0 1.0 49 ------- null}
- -t 0.159776 -s 0 -d 1 -p tcp -e 1040 -c 2 -i 51 -a 2 -x {0.0 1.0 33 ------- null}
h -t 0.159776 -s 0 -d 1 -p tcp -e 1040 -c 2 -i 51 -a 2 -x {0.0 1.0 -1 ------- null}
r -t 0.160112 -s 0 -d 1 -p tcp -e 1040 -c 2 -i 48 -a 2 -x {0.0 1.0 31 ------- null}
+ -t 0.160112 -s 1 -d 0 -p ack -e 40 -c 2 -i 81 -a 2 -x {1.0 0.0 31 ------- null}
- -t 0.160112 -s 1 -d 0 -p ack -e 40 -c 2 -i 81 -a 2 -x {1.0 0.0 31 ------- null}
h -t 0.160112 -s 1 -d 0 -p ack -e 40 -c 2 -i 81 -a 2 -x {1.0 0.0 -1 ------- null}
r -t 0.160512 -s 1 -d 0 -p ack -e 40 -c 2 -i 79 -a 2 -x {1.0 0.0 30 ------- null}
+ -t 0.160512 -s 0 -d 1 -p tcp -e 1040 -c 2 -i 82 -a 2 -x {0.0 1.0 50 ------- null}
- -t 0.16144 -s 0 -d 1 -p tcp -e 1040 -c 2 -i 52 -a 2 -x {0.0 1.0 34 ------- null}
h -t 0.16144 -s 0 -d 1 -p tcp -e 1040 -c 2 -i 52 -a 2 -x {0.0 1.0 -1 ------- null}
r -t 0.161776 -s 0 -d 1 -p tcp -e 1040 -c 2 -i 49 -a 2 -x {0.0 1.0 32 ------- null}
+ -t 0.161776 -s 1 -d 0 -p ack -e 40 -c 2 -i 83 -a 2 -x {1.0 0.0 32 ------- null}
- -t 0.161776 -s 1 -d 0 -p ack -e 40 -c 2 -i 83 -a 2 -x {1.0 0.0 32 ------- null}
h -t 0.161776 -s 1 -d 0 -p ack -e 40 -c 2 -i 83 -a 2 -x {1.0 0.0 -1 ------- null}
r -t 0.162176 -s 1 -d 0 -p ack -e 40 -c 2 -i 81 -a 2 -x {1.0 0.0 31 ------- null}
+ -t 0.162176 -s 0 -d 1 -p tcp -e 1040 -c 2 -i 84 -a 2 -x {0.0 1.0 51 ------- null}
- -t 0.163104 -s 0 -d 1 -p tcp -e 1040 -c 2 -i 54 -a 2 -x {0.0 1.0 35 ------- null}
h -t 0.163104 -s 0 -d 1 -p tcp -e 1040 -c 2 -i 54 -a 2 -x {0.0 1.0 -1 ------- null}
r -t 0.16344 -s 0 -d 1 -p tcp -e 1040 -c 2 -i 51 -a 2 -x {0.0 1.0 33 ------- null}
+ -t 0.16344 -s 1 -d 0 -p ack -e 40 -c 2 -i 85 -a 2 -x {1.0 0.0 33 ------- null}
- -t 0.16344 -s 1 -d 0 -p ack -e 40 -c 2 -i 85 -a 2 -x {1.0 0.0 33 ------- null}
h -t 0.16344 -s 1 -d 0 -p ack -e 40 -c 2 -i 85 -a 2 -x {1.0 0.0 -1 ------- null}
r -t 0.16384 -s 1 -d 0 -p ack -e 40 -c 2 -i 83 -a 2 -x {1.0 0.0 32 ------- null}
+ -t 0.16384 -s 0 -d 1 -p tcp -e 1040 -c 2 -i 86 -a 2 -x {0.0 1.0 52 ------- null}
- -t 0.164768 -s 0 -d 1 -p tcp -e 1040 -c 2 -i 55 -a 2 -x {0.0 1.0 36 ------- null}
h -t 0.164768 -s 0 -d 1 -p tcp -e 1040 -c 2 -i 55 -a 2 -x {0.0 1.0 -1 ------- null}
r -t 0.165104 -s 0 -d 1 -p tcp -e 1040 -c 2 -i 52 -a 2 -x {0.0 1.0 34 ------- null}
+ -t 0.165104 -s 1 -d 0 -p ack -e 40 -c 2 -i 87 -a 2 -x {1.0 0.0 34 ------- null}
- -t 0.165104 -s 1 -d 0 -p ack -e 40 -c 2 -i 87 -a 2 -x {1.0 0.0 34 ------- null}
h -t 0.165104 -s 1 -d 0 -p ack -e 40 -c 2 -i 87 -a 2 -x {1.0 0.0 -1 ------- null}
r -t 0.165504 -s 1 -d 0 -p ack -e 40 -c 2 -i 85 -a 2 -x {1.0 0.0 33 ------- null}
+ -t 0.165504 -s 0 -d 1 -p tcp -e 1040 -c 2 -i 88 -a 2 -x {0.0 1.0 53 ------- null}
- -t 0.166432 -s 0 -d 1 -p tcp -e 1040 -c 2 -i 57 -a 2 -x {0.0 1.0 37 ------- null}
h -t 0.166432 -s 0 -d 1 -p tcp -e 1040 -c 2 -i 57 -a 2 -x {0.0 1.0 -1 ------- null}
r -t 0.166768 -s 0 -d 1 -p tcp -e 1040 -c 2 -i 54 -a 2 -x {0.0 1.0 35 ------- null}
+ -t 0.166768 -s 1 -d 0 -p ack -e 40 -c 2 -i 89 -a 2 -x {1.0 0.0 35 ------- null}
- -t 0.166768 -s 1 -d 0 -p ack -e 40 -c 2 -i 89 -a 2 -x {1.0 0.0 35 ------- null}
h -t 0.166768 -s 1 -d 0 -p ack -e 40 -c 2 -i 89 -a 2 -x {1.0 0.0 -1 ------- null}
r -t 0.167168 -s 1 -d 0 -p ack -e 40 -c 2 -i 87 -a 2 -x {1.0 0.0 34 ------- null}
+ -t 0.167168 -s 0 -d 1 -p tcp -e 1040 -c 2 -i 90 -a 2 -x {0.0 1.0 54 ------- null}
- -t 0.168096 -s 0 -d 1 -p tcp -e 1040 -c 2 -i 58 -a 2 -x {0.0 1.0 38 ------- null}
h -t 0.168096 -s 0 -d 1 -p tcp -e 1040 -c 2 -i 58 -a 2 -x {0.0 1.0 -1 ------- null}
r -t 0.168432 -s 0 -d 1 -p tcp -e 1040 -c 2 -i 55 -a 2 -x {0.0 1.0 36 ------- null}
+ -t 0.168432 -s 1 -d 0 -p ack -e 40 -c 2 -i 91 -a 2 -x {1.0 0.0 36 ------- null}
- -t 0.168432 -s 1 -d 0 -p ack -e 40 -c 2 -i 91 -a 2 -x {1.0 0.0 36 ------- null}
h -t 0.168432 -s 1 -d 0 -p ack -e 40 -c 2 -i 91 -a 2 -x {1.0 0.0 -1 ------- null}
r -t 0.168832 -s 1 -d 0 -p ack -e 40 -c 2 -i 89 -a 2 -x {1.0 0.0 35 ------- null}
+ -t 0.168832 -s 0 -d 1 -p tcp -e 1040 -c 2 -i 92 -a 2 -x {0.0 1.0 55 ------- null}
- -t 0.16976 -s 0 -d 1 -p tcp -e 1040 -c 2 -i 60 -a 2 -x {0.0 1.0 39 ------- null}
h -t 0.16976 -s 0 -d 1 -p tcp -e 1040 -c 2 -i 60 -a 2 -x {0.0 1.0 -1 ------- null}
r -t 0.170096 -s 0 -d 1 -p tcp -e 1040 -c 2 -i 57 -a 2 -x {0.0 1.0 37 ------- null}
+ -t 0.170096 -s 1 -d 0 -p ack -e 40 -c 2 -i 93 -a 2 -x {1.0 0.0 37 ------- null}
- -t 0.170096 -s 1 -d 0 -p ack -e 40 -c 2 -i 93 -a 2 -x {1.0 0.0 37 ------- null}
h -t 0.170096 -s 1 -d 0 -p ack -e 40 -c 2 -i 93 -a 2 -x {1.0 0.0 -1 ------- null}
r -t 0.170496 -s 1 -d 0 -p ack -e 40 -c 2 -i 91 -a 2 -x {1.0 0.0 36 ------- null}
+ -t 0.170496 -s 0 -d 1 -p tcp -e 1040 -c 2 -i 94 -a 2 -x {0.0 1.0 56 ------- null}
- -t 0.171424 -s 0 -d 1 -p tcp -e 1040 -c 2 -i 62 -a 2 -x {0.0 1.0 40 ------- null}
h -t 0.171424 -s 0 -d 1 -p tcp -e 1040 -c 2 -i 62 -a 2 -x {0.0 1.0 -1 ------- null}
r -t 0.17176 -s 0 -d 1 -p tcp -e 1040 -c 2 -i 58 -a 2 -x {0.0 1.0 38 ------- null}
+ -t 0.17176 -s 1 -d 0 -p ack -e 40 -c 2 -i 95 -a 2 -x {1.0 0.0 38 ------- null}
- -t 0.17176 -s 1 -d 0 -p ack -e 40 -c 2 -i 95 -a 2 -x {1.0 0.0 38 ------- null}
h -t 0.17176 -s 1 -d 0 -p ack -e 40 -c 2 -i 95 -a 2 -x {1.0 0.0 -1 ------- null}
r -t 0.17216 -s 1 -d 0 -p ack -e 40 -c 2 -i 93 -a 2 -x {1.0 0.0 37 ------- null}
+ -t 0.17216 -s 0 -d 1 -p tcp -e 1040 -c 2 -i 96 -a 2 -x {0.0 1.0 57 ------- null}
- -t 0.173088 -s 0 -d 1 -p tcp -e 1040 -c 2 -i 64 -a 2 -x {0.0 1.0 41 ------- null}
h -t 0.173088 -s 0 -d 1 -p tcp -e 1040 -c 2 -i 64 -a 2 -x {0.0 1.0 -1 ------- null}
r -t 0.173424 -s 0 -d 1 -p tcp -e 1040 -c 2 -i 60 -a 2 -x {0.0 1.0 39 ------- null}
+ -t 0.173424 -s 1 -d 0 -p ack -e 40 -c 2 -i 97 -a 2 -x {1.0 0.0 39 ------- null}
- -t 0.173424 -s 1 -d 0 -p ack -e 40 -c 2 -i 97 -a 2 -x {1.0 0.0 39 ------- null}
h -t 0.173424 -s 1 -d 0 -p ack -e 40 -c 2 -i 97 -a 2 -x {1.0 0.0 -1 ------- null}
r -t 0.173824 -s 1 -d 0 -p ack -e 40 -c 2 -i 95 -a 2 -x {1.0 0.0 38 ------- null}
+ -t 0.173824 -s 0 -d 1 -p tcp -e 1040 -c 2 -i 98 -a 2 -x {0.0 1.0 58 ------- null}
- -t 0.174752 -s 0 -d 1 -p tcp -e 1040 -c 2 -i 66 -a 2 -x {0.0 1.0 42 ------- null}
h -t 0.174752 -s 0 -d 1 -p tcp -e 1040 -c 2 -i 66 -a 2 -x {0.0 1.0 -1 ------- null}
r -t 0.175088 -s 0 -d 1 -p tcp -e 1040 -c 2 -i 62 -a 2 -x {0.0 1.0 40 ------- null}
+ -t 0.175088 -s 1 -d 0 -p ack -e 40 -c 2 -i 99 -a 2 -x {1.0 0.0 40 ------- null}
- -t 0.175088 -s 1 -d 0 -p ack -e 40 -c 2 -i 99 -a 2 -x {1.0 0.0 40 ------- null}
h -t 0.175088 -s 1 -d 0 -p ack -e 40 -c 2 -i 99 -a 2 -x {1.0 0.0 -1 ------- null}
r -t 0.175488 -s 1 -d 0 -p ack -e 40 -c 2 -i 97 -a 2 -x {1.0 0.0 39 ------- null}
+ -t 0.175488 -s 0 -d 1 -p tcp -e 1040 -c 2 -i 100 -a 2 -x {0.0 1.0 59 ------- null}
- -t 0.176416 -s 0 -d 1 -p tcp -e 1040 -c 2 -i 68 -a 2 -x {0.0 1.0 43 ------- null}
h -t 0.176416 -s 0 -d 1 -p tcp -e 1040 -c 2 -i 68 -a 2 -x {0.0 1.0 -1 ------- null}
r -t 0.176752 -s 0 -d 1 -p tcp -e 1040 -c 2 -i 64 -a 2 -x {0.0 1.0 41 ------- null}
+ -t 0.176752 -s 1 -d 0 -p ack -e 40 -c 2 -i 101 -a 2 -x {1.0 0.0 41 ------- null}
- -t 0.176752 -s 1 -d 0 -p ack -e 40 -c 2 -i 101 -a 2 -x {1.0 0.0 41 ------- null}
h -t 0.176752 -s 1 -d 0 -p ack -e 40 -c 2 -i 101 -a 2 -x {1.0 0.0 -1 ------- null}
r -t 0.177152 -s 1 -d 0 -p ack -e 40 -c 2 -i 99 -a 2 -x {1.0 0.0 40 ------- null}
+ -t 0.177152 -s 0 -d 1 -p tcp -e 1040 -c 2 -i 102 -a 2 -x {0.0 1.0 60 ------- null}
- -t 0.17808 -s 0 -d 1 -p tcp -e 1040 -c 2 -i 70 -a 2 -x {0.0 1.0 44 ------- null}
h -t 0.17808 -s 0 -d 1 -p tcp -e 1040 -c 2 -i 70 -a 2 -x {0.0 1.0 -1 ------- null}