+ 0.1 0 1 tcp 40 ------- 2 0.0 1.0 0 0
- 0.1 0 1 tcp 40 ------- 2 0.0 1.0 0 0
r 0.102064 0 1 tcp 40 ------- 2 0.0 1.0 0 0
+ 0.102064 1 0 ack 40 ------- 2 1.0 0.0 0 1
- 0.102064 1 0 ack 40 ------- 2 1.0 0.0 0 1
r 0.104128 1 0 ack 40 ------- 2 1.0 0.0 0 1
+ 0.104128 0 1 tcp 1040 ------- 2 0.0 1.0 1 2
- 0.104128 0 1 tcp 1040 ------- 2 0.0 1.0 1 2
+ 0.104128 0 1 tcp 1040 ------- 2 0.0 1.0 2 3
- 0.105792 0 1 tcp 1040 ------- 2 0.0 1.0 2 3
r 0.107792 0 1 tcp 1040 ------- 2 0.0 1.0 1 2
+ 0.107792 1 0 ack 40 ------- 2 1.0 0.0 1 4
- 0.107792 1 0 ack 40 ------- 2 1.0 0.0 1 4
r 0.109456 0 1 tcp 1040 ------- 2 0.0 1.0 2 3
+ 0.109456 1 0 ack 40 ------- 2 1.0 0.0 2 5
- 0.109456 1 0 ack 40 ------- 2 1.0 0.0 2 5
r 0.109856 1 0 ack 40 ------- 2 1.0 0.0 1 4
+ 0.109856 0 1 tcp 1040 ------- 2 0.0 1.0 3 6
- 0.109856 0 1 tcp 1040 ------- 2 0.0 1.0 3 6
+ 0.109856 0 1 tcp 1040 ------- 2 0.0 1.0 4 7
r 0.11152 1 0 ack 40 ------- 2 1.0 0.0 2 5
+ 0.11152 0 1 tcp 1040 ------- 2 0.0 1.0 5 8
+ 0.11152 0 1 tcp 1040 ------- 2 0.0 1.0 6 9
- 0.11152 0 1 tcp 1040 ------- 2 0.0 1.0 4 7
- 0.113184 0 1 tcp 1040 ------- 2 0.0 1.0 5 8
r 0.11352 0 1 tcp 1040 ------- 2 0.0 1.0 3 6
+ 0.11352 1 0 ack 40 ------- 2 1.0 0.0 3 10
- 0.11352 1 0 ack 40 ------- 2 1.0 0.0 3 10
- 0.114848 0 1 tcp 1040 ------- 2 0.0 1.0 6 9
r 0.115184 0 1 tcp 1040 ------- 2 0.0 1.0 4 7
+ 0.115184 1 0 ack 40 ------- 2 1.0 0.0 4 11
- 0.115184 1 0 ack 40 ------- 2 1.0 0.0 4 11
r 0.115584 1 0 ack 40 ------- 2 1.0 0.0 3 10
+ 0.115584 0 1 tcp 1040 ------- 2 0.0 1.0 7 12
+ 0.115584 0 1 tcp 1040 ------- 2 0.0 1.0 8 13
- 0.116512 0 1 tcp 1040 ------- 2 0.0 1.0 7 12
r 0.116848 0 1 tcp 1040 ------- 2 0.0 1.0 5 8
+ 0.116848 1 0 ack 40 ------- 2 1.0 0.0 5 14
- 0.116848 1 0 ack 40 ------- 2 1.0 0.0 5 14
r 0.117248 1 0 ack 40 ------- 2 1.0 0.0 4 11
+ 0.117248 0 1 tcp 1040 ------- 2 0.0 1.0 9 15
+ 0.117248 0 1 tcp 1040 ------- 2 0.0 1.0 10 16
- 0.118176 0 1 tcp 1040 ------- 2 0.0 1.0 8 13
r 0.118512 0 1 tcp 1040 ------- 2 0.0 1.0 6 9
+ 0.118512 1 0 ack 40 ------- 2 1.0 0.0 6 17
- 0.118512 1 0 ack 40 ------- 2 1.0 0.0 6 17
r 0.118912 1 0 ack 40 ------- 2 1.0 0.0 5 14
+ 0.118912 0 1 tcp 1040 ------- 2 0.0 1.0 11 18
+ 0.118912 0 1 tcp 1040 ------- 2 0.0 1.0 12 19
- 0.11984 0 1 tcp 1040 ------- 2 0.0 1.0 9 15
r 0.120176 0 1 tcp 1040 ------- 2 0.0 1.0 7 12
+ 0.120176 1 0 ack 40 ------- 2 1.0 0.0 7 20
- 0.120176 1 0 ack 40 ------- 2 1.0 0.0 7 20
r 0.120576 1 0 ack 40 ------- 2 1.0 0.0 6 17
+ 0.120576 0 1 tcp 1040 ------- 2 0.0 1.0 13 21
+ 0.120576 0 1 tcp 1040 ------- 2 0.0 1.0 14 22
- 0.121504 0 1 tcp 1040 ------- 2 0.0 1.0 10 16
r 0.12184 0 1 tcp 1040 ------- 2 0.0 1.0 8 13
+ 0.12184 1 0 ack 40 ------- 2 1.0 0.0 8 23
- 0.12184 1 0 ack 40 ------- 2 1.0 0.0 8 23
r 0.12224 1 0 ack 40 ------- 2 1.0 0.0 7 20
+ 0.12224 0 1 tcp 1040 ------- 2 0.0 1.0 15 24
+ 0.12224 0 1 tcp 1040 ------- 2 0.0 1.0 16 25
- 0.123168 0 1 tcp 1040 ------- 2 0.0 1.0 11 18
r 0.123504 0 1 tcp 1040 ------- 2 0.0 1.0 9 15
+ 0.123504 1 0 ack 40 ------- 2 1.0 0.0 9 26
- 0.123504 1 0 ack 40 ------- 2 1.0 0.0 9 26
r 0.123904 1 0 ack 40 ------- 2 1.0 0.0 8 23
+ 0.123904 0 1 tcp 1040 ------- 2 0.0 1.0 17 27
+ 0.123904 0 1 tcp 1040 ------- 2 0.0 1.0 18 28
- 0.124832 0 1 tcp 1040 ------- 2 0.0 1.0 12 19
r 0.125168 0 1 tcp 1040 ------- 2 0.0 1.0 10 16
+ 0.125168 1 0 ack 40 ------- 2 1.0 0.0 10 29
- 0.125168 1 0 ack 40 ------- 2 1.0 0.0 10 29
r 0.125568 1 0 ack 40 ------- 2 1.0 0.0 9 26
+ 0.125568 0 1 tcp 1040 ------- 2 0.0 1.0 19 30
+ 0.125568 0 1 tcp 1040 ------- 2 0.0 1.0 20 31
- 0.126496 0 1 tcp 1040 ------- 2 0.0 1.0 13 21
r 0.126832 0 1 tcp 1040 ------- 2 0.0 1.0 11 18
+ 0.126832 1 0 ack 40 ------- 2 1.0 0.0 11 32
- 0.126832 1 0 ack 40 ------- 2 1.0 0.0 11 32
r 0.127232 1 0 ack 40 ------- 2 1.0 0.0 10 29
+ 0.127232 0 1 tcp 1040 ------- 2 0.0 1.0 21 33
+ 0.127232 0 1 tcp 1040 ------- 2 0.0 1.0 22 34
- 0.12816 0 1 tcp 1040 ------- 2 0.0 1.0 14 22
r 0.128496 0 1 tcp 1040 ------- 2 0.0 1.0 12 19
+ 0.128496 1 0 ack 40 ------- 2 1.0 0.0 12 35
- 0.128496 1 0 ack 40 ------- 2 1.0 0.0 12 35
r 0.128896 1 0 ack 40 ------- 2 1.0 0.0 11 32
+ 0.128896 0 1 tcp 1040 ------- 2 0.0 1.0 23 36
+ 0.128896 0 1 tcp 1040 ------- 2 0.0 1.0 24 37
- 0.129824 0 1 tcp 1040 ------- 2 0.0 1.0 15 24
r 0.13016 0 1 tcp 1040 ------- 2 0.0 1.0 13 21
+ 0.13016 1 0 ack 40 ------- 2 1.0 0.0 13 38
- 0.13016 1 0 ack 40 ------- 2 1.0 0.0 13 38
r 0.13056 1 0 ack 40 ------- 2 1.0 0.0 12 35
+ 0.13056 0 1 tcp 1040 ------- 2 0.0 1.0 25 39
+ 0.13056 0 1 tcp 1040 ------- 2 0.0 1.0 26 40
- 0.131488 0 1 tcp 1040 ------- 2 0.0 1.0 16 25
r 0.131824 0 1 tcp 1040 ------- 2 0.0 1.0 14 22
+ 0.131824 1 0 ack 40 ------- 2 1.0 0.0 14 41
- 0.131824 1 0 ack 40 ------- 2 1.0 0.0 14 41
r 0.132224 1 0 ack 40 ------- 2 1.0 0.0 13 38
+ 0.132224 0 1 tcp 1040 ------- 2 0.0 1.0 27 42
+ 0.132224 0 1 tcp 1040 ------- 2 0.0 1.0 28 43
- 0.133152 0 1 tcp 1040 ------- 2 0.0 1.0 17 27
r 0.133488 0 1 tcp 1040 ------- 2 0.0 1.0 15 24
+ 0.133488 1 0 ack 40 ------- 2 1.0 0.0 15 44
- 0.133488 1 0 ack 40 ------- 2 1.0 0.0 15 44
r 0.133888 1 0 ack 40 ------- 2 1.0 0.0 14 41
+ 0.133888 0 1 tcp 1040 ------- 2 0.0 1.0 29 45
+ 0.133888 0 1 tcp 1040 ------- 2 0.0 1.0 30 46
- 0.134816 0 1 tcp 1040 ------- 2 0.0 1.0 18 28
r 0.135152 0 1 tcp 1040 ------- 2 0.0 1.0 16 25
+ 0.135152 1 0 ack 40 ------- 2 1.0 0.0 16 47
- 0.135152 1 0 ack 40 ------- 2 1.0 0.0 16 47
r 0.135552 1 0 ack 40 ------- 2 1.0 0.0 15 44
+ 0.135552 0 1 tcp 1040 ------- 2 0.0 1.0 31 48
+ 0.135552 0 1 tcp 1040 ------- 2 0.0 1.0 32 49
- 0.13648 0 1 tcp 1040 ------- 2 0.0 1.0 19 30
r 0.136816 0 1 tcp 1040 ------- 2 0.0 1.0 17 27
+ 0.136816 1 0 ack 40 ------- 2 1.0 0.0 17 50
- 0.136816 1 0 ack 40 ------- 2 1.0 0.0 17 50
r 0.137216 1 0 ack 40 ------- 2 1.0 0.0 16 47
+ 0.137216 0 1 tcp 1040 ------- 2 0.0 1.0 33 51
+ 0.137216 0 1 tcp 1040 ------- 2 0.0 1.0 34 52
- 0.138144 0 1 tcp 1040 ------- 2 0.0 1.0 20 31
r 0.13848 0 1 tcp 1040 ------- 2 0.0 1.0 18 28
+ 0.13848 1 0 ack 40 ------- 2 1.0 0.0 18 53
- 0.13848 1 0 ack 40 ------- 2 1.0 0.0 18 53
r 0.13888 1 0 ack 40 ------- 2 1.0 0.0 17 50
+ 0.13888 0 1 tcp 1040 ------- 2 0.0 1.0 35 54
+ 0.13888 0 1 tcp 1040 ------- 2 0.0 1.0 36 55
- 0.139808 0 1 tcp 1040 ------- 2 0.0 1.0 21 33
r 0.140144 0 1 tcp 1040 ------- 2 0.0 1.0 19 30
+ 0.140144 1 0 ack 40 ------- 2 1.0 0.0 19 56
- 0.140144 1 0 ack 40 ------- 2 1.0 0.0 19 56
r 0.140544 1 0 ack 40 ------- 2 1.0 0.0 18 53
+ 0.140544 0 1 tcp 1040 ------- 2 0.0 1.0 37 57
+ 0.140544 0 1 tcp 1040 ------- 2 0.0 1.0 38 58
- 0.141472 0 1 tcp 1040 ------- 2 0.0 1.0 22 34
r 0.141808 0 1 tcp 1040 ------- 2 0.0 1.0 20 31
+ 0.141808 1 0 ack 40 ------- 2 1.0 0.0 20 59
- 0.141808 1 0 ack 40 ------- 2 1.0 0.0 20 59
r 0.142208 1 0 ack 40 ------- 2 1.0 0.0 19 56
+ 0.142208 0 1 tcp 1040 ------- 2 0.0 1.0 39 60
- 0.143136 0 1 tcp 1040 ------- 2 0.0 1.0 23 36
r 0.143472 0 1 tcp 1040 ------- 2 0.0 1.0 21 33
+ 0.143472 1 0 ack 40 ------- 2 1.0 0.0 21 61
- 0.143472 1 0 ack 40 ------- 2 1.0 0.0 21 61
r 0.143872 1 0 ack 40 ------- 2 1.0 0.0 20 59
+ 0.143872 0 1 tcp 1040 ------- 2 0.0 1.0 40 62
- 0.1448 0 1 tcp 1040 ------- 2 0.0 1.0 24 37
r 0.145136 0 1 tcp 1040 ------- 2 0.0 1.0 22 34
+ 0.145136 1 0 ack 40 ------- 2 1.0 0.0 22 63
- 0.145136 1 0 ack 40 ------- 2 1.0 0.0 22 63
r 0.145536 1 0 ack 40 ------- 2 1.0 0.0 21 61
+ 0.145536 0 1 tcp 1040 ------- 2 0.0 1.0 41 64
- 0.146464 0 1 tcp 1040 ------- 2 0.0 1.0 25 39
r 0.1468 0 1 tcp 1040 ------- 2 0.0 1.0 23 36
+ 0.1468 1 0 ack 40 ------- 2 1.0 0.0 23 65
- 0.1468 1 0 ack 40 ------- 2 1.0 0.0 23 65
r 0.1472 1 0 ack 40 ------- 2 1.0 0.0 22 63
+ 0.1472 0 1 tcp 1040 ------- 2 0.0 1.0 42 66
- 0.148128 0 1 tcp 1040 ------- 2 0.0 1.0 26 40
r 0.148464 0 1 tcp 1040 ------- 2 0.0 1.0 24 37
+ 0.148464 1 0 ack 40 ------- 2 1.0 0.0 24 67
- 0.148464 1 0 ack 40 ------- 2 1.0 0.0 24 67
r 0.148864 1 0 ack 40 ------- 2 1.0 0.0 23 65
+ 0.148864 0 1 tcp 1040 ------- 2 0.0 1.0 43 68
- 0.149792 0 1 tcp 1040 ------- 2 0.0 1.0 27 42
r 0.150128 0 1 tcp 1040 ------- 2 0.0 1.0 25 39
+ 0.150128 1 0 ack 40 ------- 2 1.0 0.0 25 69
- 0.150128 1 0 ack 40 ------- 2 1.0 0.0 25 69
r 0.150528 1 0 ack 40 ------- 2 1.0 0.0 24 67
+ 0.150528 0 1 tcp 1040 ------- 2 0.0 1.0 44 70
- 0.151456 0 1 tcp 1040 ------- 2 0.0 1.0 28 43
r 0.151792 0 1 tcp 1040 ------- 2 0.0 1.0 26 40
+ 0.151792 1 0 ack 40 ------- 2 1.0 0.0 26 71
- 0.151792 1 0 ack 40 ------- 2 1.0 0.0 26 71
r 0.152192 1 0 ack 40 ------- 2 1.0 0.0 25 69
+ 0.152192 0 1 tcp 1040 ------- 2 0.0 1.0 45 72
- 0.15312 0 1 tcp 1040 ------- 2 0.0 1.0 29 45
r 0.153456 0 1 tcp 1040 ------- 2 0.0 1.0 27 42
+ 0.153456 1 0 ack 40 ------- 2 1.0 0.0 27 73
- 0.153456 1 0 ack 40 ------- 2 1.0 0.0 27 73
r 0.153856 1 0 ack 40 ------- 2 1.0 0.0 26 71
+ 0.153856 0 1 tcp 1040 ------- 2 0.0 1.0 46 74
- 0.154784 0 1 tcp 1040 ------- 2 0.0 1.0 30 46
r 0.15512 0 1 tcp 1040 ------- 2 0.0 1.0 28 43
+ 0.15512 1 0 ack 40 ------- 2 1.0 0.0 28 75
- 0.15512 1 0 ack 40 ------- 2 1.0 0.0 28 75
r 0.15552 1 0 ack 40 ------- 2 1.0 0.0 27 73
+ 0.15552 0 1 tcp 1040 ------- 2 0.0 1.0 47 76
- 0.156448 0 1 tcp 1040 ------- 2 0.0 1.0 31 48
r 0.156784 0 1 tcp 1040 ------- 2 0.0 1.0 29 45
+ 0.156784 1 0 ack 40 ------- 2 1.0 0.0 29 77
- 0.156784 1 0 ack 40 ------- 2 1.0 0.0 29 77
r 0.157184 1 0 ack 40 ------- 2 1.0 0.0 28 75
+ 0.157184 0 1 tcp 1040 ------- 2 0.0 1.0 48 78
- 0.158112 0 1 tcp 1040 ------- 2 0.0 1.0 32 49
r 0.158448 0 1 tcp 1040 ------- 2 0.0 1.0 30 46
+ 0.158448 1 0 ack 40 ------- 2 1.0 0.0 30 79
- 0.158448 1 0 ack 40 ------- 2 1.0 0.0 30 79
r 0.158848 1 0 ack 40 ------- 2 1.0 0.0 29 77
+ 0.158848 0 1 tcp 1040 ------- 2 0.0 1.0 49 80
- 0.159776 0 1 tcp 1040 ------- 2 0.0 1.0 33 51
r 0.160112 0 1 tcp 1040 ------- 2 0.0 1.0 31 48
+ 0.160112 1 0 ack 40 ------- 2 1.0 0.0 31 81
- 0.160112 1 0 ack 40 ------- 2 1.0 0.0 31 81
r 0.160512 1 0 ack 40 ------- 2 1.0 0.0 30 79
+ 0.160512 0 1 tcp 1040 ------- 2 0.0 1.0 50 82
- 0.16144 0 1 tcp 1040 ------- 2 0.0 1.0 34 52
r 0.161776 0 1 tcp 1040 ------- 2 0.0 1.0 32 49
+ 0.161776 1 0 ack 40 ------- 2 1.0 0.0 32 83
- 0.161776 1 0 ack 40 ------- 2 1.0 0.0 32 83
r 0.162176 1 0 ack 40 ------- 2 1.0 0.0 31 81
+ 0.162176 0 1 tcp 1040 ------- 2 0.0 1.0 51 84
- 0.163104 0 1 tcp 1040 ------- 2 0.0 1.0 35 54
r 0.16344 0 1 tcp 1040 ------- 2 0.0 1.0 33 51
+ 0.16344 1 0 ack 40 ------- 2 1.0 0.0 33 85
- 0.16344 1 0 ack 40 ------- 2 1.0 0.0 33 85
r 0.16384 1 0 ack 40 ------- 2 1.0 0.0 32 83
+ 0.16384 0 1 tcp 1040 ------- 2 0.0 1.0 52 86
- 0.164768 0 1 tcp 1040 ------- 2 0.0 1.0 36 55
r 0.165104 0 1 tcp 1040 ------- 2 0.0 1.0 34 52
+ 0.165104 1 0 ack 40 ------- 2 1.0 0.0 34 87
- 0.165104 1 0 ack 40 ------- 2 1.0 0.0 34 87
r 0.165504 1 0 ack 40 ------- 2 1.0 0.0 33 85
+ 0.165504 0 1 tcp 1040 ------- 2 0.0 1.0 53 88
- 0.166432 0 1 tcp 1040 ------- 2 0.0 1.0 37 57
r 0.166768 0 1 tcp 1040 ------- 2 0.0 1.0 35 54
+ 0.166768 1 0 ack 40 ------- 2 1.0 0.0 35 89
- 0.166768 1 0 ack 40 ------- 2 1.0 0.0 35 89
r 0.167168 1 0 ack 40 ------- 2 1.0 0.0 34 87
+ 0.167168 0 1 tcp 1040 ------- 2 0.0 1.0 54 90
- 0.168096 0 1 tcp 1040 ------- 2 0.0 1.0 38 58
r 0.168432 0 1 tcp 1040 ------- 2 0.0 1.0 36 55
+ 0.168432 1 0 ack 40 ------- 2 1.0 0.0 36 91
- 0.168432 1 0 ack 40 ------- 2 1.0 0.0 36 91
r 0.168832 1 0 ack 40 ------- 2 1.0 0.0 35 89
+ 0.168832 0 1 tcp 1040 ------- 2 0.0 1.0 55 92
- 0.16976 0 1 tcp 1040 ------- 2 0.0 1.0 39 60
r 0.170096 0 1 tcp 1040 ------- 2 0.0 1.0 37 57
+ 0.170096 1 0 ack 40 ------- 2 1.0 0.0 37 93
- 0.170096 1 0 ack 40 ------- 2 1.0 0.0 37 93
r 0.170496 1 0 ack 40 ------- 2 1.0 0.0 36 91
+ 0.170496 0 1 tcp 1040 ------- 2 0.0 1.0 56 94
- 0.171424 0 1 tcp 1040 ------- 2 0.0 1.0 40 62
r 0.17176 0 1 tcp 1040 ------- 2 0.0 1.0 38 58
+ 0.17176 1 0 ack 40 ------- 2 1.0 0.0 38 95
- 0.17176 1 0 ack 40 ------- 2 1.0 0.0 38 95
r 0.17216 1 0 ack 40 ------- 2 1.0 0.0 37 93
+ 0.17216 0 1 tcp 1040 ------- 2 0.0 1.0 57 96
- 0.173088 0 1 tcp 1040 ------- 2 0.0 1.0 41 64
r 0.173424 0 1 tcp 1040 ------- 2 0.0 1.0 39 60
+ 0.173424 1 0 ack 40 ------- 2 1.0 0.0 39 97
- 0.173424 1 0 ack 40 ------- 2 1.0 0.0 39 97
r 0.173824 1 0 ack 40 ------- 2 1.0 0.0 38 95
+ 0.173824 0 1 tcp 1040 ------- 2 0.0 1.0 58 98
- 0.174752 0 1 tcp 1040 ------- 2 0.0 1.0 42 66
r 0.175088 0 1 tcp 1040 ------- 2 0.0 1.0 40 62
+ 0.175088 1 0 ack 40 ------- 2 1.0 0.0 40 99
- 0.175088 1 0 ack 40 ------- 2 1.0 0.0 40 99
r 0.175488 1 0 ack 40 ------- 2 1.0 0.0 39 97
+ 0.175488 0 1 tcp 1040 ------- 2 0.0 1.0 59 100
- 0.176416 0 1 tcp 1040 ------- 2 0.0 1.0 43 68
r 0.176752 0 1 tcp 1040 ------- 2 0.0 1.0 41 64
+ 0.176752 1 0 ack 40 ------- 2 1.0 0.0 41 101
- 0.176752 1 0 ack 40 ------- 2 1.0 0.0 41 101
r 0.177152 1 0 ack 40 ------- 2 1.0 0.0 40 99
+ 0.177152 0 1 tcp 1040 ------- 2 0.0 1.0 60 102
- 0.17808 0 1 tcp 1040 ------- 2 0.0 1.0 44 70
r 0.178416 0 1 tcp 1040 ------- 2 0.0 1.0 42 66
+ 0.178416 1 0 ack 40 ------- 2 1.0 0.0 42 103
- 0.178416 1 0 ack 40 ------- 2 1.0 0.0 42 103
r 0.178816 1 0 ack 40 ------- 2 1.0 0.0 41 101
+ 0.178816 0 1 tcp 1040 ------- 2 0.0 1.0 61 104
- 0.179744 0 1 tcp 1040 ------- 2 0.0 1.0 45 72
r 0.18008 0 1 tcp 1040 ------- 2 0.0 1.0 43 68
+ 0.18008 1 0 ack 40 ------- 2 1.0 0.0 43 105
- 0.18008 1 0 ack 40 ------- 2 1.0 0.0 43 105
r 0.18048 1 0 ack 40 ------- 2 1.0 0.0 42 103
+ 0.18048 0 1 tcp 1040 ------- 2 0.0 1.0 62 106
- 0.181408 0 1 tcp 1040 ------- 2 0.0 1.0 46 74
r 0.181744 0 1 tcp 1040 ------- 2 0.0 1.0 44 70
+ 0.181744 1 0 ack 40 ------- 2 1.0 0.0 44 107
- 0.181744 1 0 ack 40 ------- 2 1.0 0.0 44 107
r 0.182144 1 0 ack 40 ------- 2 1.0 0.0 43 105
+ 0.182144 0 1 tcp 1040 ------- 2 0.0 1.0 63 108
- 0.183072 0 1 tcp 1040 ------- 2 0.0 1.0 47 76
r 0.183408 0 1 tcp 1040 ------- 2 0.0 1.0 45 72
+ 0.183408 1 0 ack 40 ------- 2 1.0 0.0 45 109
- 0.183408 1 0 ack 40 ------- 2 1.0 0.0 45 109
r 0.183808 1 0 ack 40 ------- 2 1.0 0.0 44 107
+ 0.183808 0 1 tcp 1040 ------- 2 0.0 1.0 64 110
- 0.184736 0 1 tcp 1040 ------- 2 0.0 1.0 48 78
r 0.185072 0 1 tcp 1040 ------- 2 0.0 1.0 46 74
+ 0.185072 1 0 ack 40 ------- 2 1.0 0.0 46 111
- 0.185072 1 0 ack 40 ------- 2 1.0 0.0 46 111
r 0.185472 1 0 ack 40 ------- 2 1.0 0.0 45 109
+ 0.185472 0 1 tcp 1040 ------- 2 0.0 1.0 65 112
- 0.1864 0 1 tcp 1040 ------- 2 0.0 1.0 49 80
r 0.186736 0 1 tcp 1040 ------- 2 0.0 1.0 47 76
+ 0.186736 1 0 ack 40 ------- 2 1.0 0.0 47 113
- 0.186736 1 0 ack 40 ------- 2 1.0 0.0 47 113
r 0.187136 1 0 ack 40 ------- 2 1.0 0.0 46 111
+ 0.187136 0 1 tcp 1040 ------- 2 0.0 1.0 66 114
- 0.188064 0 1 tcp 1040 ------- 2 0.0 1.0 50 82
r 0.1884 0 1 tcp 1040 ------- 2 0.0 1.0 48 78
+ 0.1884 1 0 ack 40 ------- 2 1.0 0.0 48 115
- 0.1884 1 0 ack 40 ------- 2 1.0 0.0 48 115
r 0.1888 1 0 ack 40 ------- 2 1.0 0.0 47 113
+ 0.1888 0 1 tcp 1040 ------- 2 0.0 1.0 67 116
- 0.189728 0 1 tcp 1040 ------- 2 0.0 1.0 51 84
r 0.190064 0 1 tcp 1040 ------- 2 0.0 1.0 49 80
+ 0.190064 1 0 ack 40 ------- 2 1.0 0.0 49 117
- 0.190064 1 0 ack 40 ------- 2 1.0 0.0 49 117
r 0.190464 1 0 ack 40 ------- 2 1.0 0.0 48 115
+ 0.190464 0 1 tcp 1040 ------- 2 0.0 1.0 68 118
- 0.191392 0 1 tcp 1040 ------- 2 0.0 1.0 52 86
r 0.191728 0 1 tcp 1040 ------- 2 0.0 1.0 50 82
+ 0.191728 1 0 ack 40 ------- 2 1.0 0.0 50 119
- 0.191728 1 0 ack 40 ------- 2 1.0 0.0 50 119
r 0.192128 1 0 ack 40 ------- 2 1.0 0.0 49 117
+ 0.192128 0 1 tcp 1040 ------- 2 0.0 1.0 69 120
- 0.193056 0 1 tcp 1040 ------- 2 0.0 1.0 53 88
r 0.193392 0 1 tcp 1040 ------- 2 0.0 1.0 51 84
+ 0.193392 1 0 ack 40 ------- 2 1.0 0.0 51 121
- 0.193392 1 0 ack 40 ------- 2 1.0 0.0 51 121
r 0.193792 1 0 ack 40 ------- 2 1.0 0.0 50 119
+ 0.193792 0 1 tcp 1040 ------- 2 0.0 1.0 70 122
- 0.19472 0 1 tcp 1040 ------- 2 0.0 1.0 54 90
r 0.195056 0 1 tcp 1040 ------- 2 0.0 1.0 52 86
+ 0.195056 1 0 ack 40 ------- 2 1.0 0.0 52 123
- 0.195056 1 0 ack 40 ------- 2 1.0 0.0 52 123
r 0.195456 1 0 ack 40 ------- 2 1.0 0.0 51 121
+ 0.195456 0 1 tcp 1040 ------- 2 0.0 1.0 71 124
- 0.196384 0 1 tcp 1040 ------- 2 0.0 1.0 55 92
r 0.19672 0 1 tcp 1040 ------- 2 0.0 1.0 53 88
+ 0.19672 1 0 ack 40 ------- 2 1.0 0.0 53 125
- 0.19672 1 0 ack 40 ------- 2 1.0 0.0 53 125
r 0.19712 1 0 ack 40 ------- 2 1.0 0.0 52 123
+ 0.19712 0 1 tcp 1040 ------- 2 0.0 1.0 72 126
- 0.198048 0 1 tcp 1040 ------- 2 0.0 1.0 56 94
r 0.198384 0 1 tcp 1040 ------- 2 0.0 1.0 54 90
+ 0.198384 1 0 ack 40 ------- 2 1.0 0.0 54 127
- 0.198384 1 0 ack 40 ------- 2 1.0 0.0 54 127
r 0.198784 1 0 ack 40 ------- 2 1.0 0.0 53 125
+ 0.198784 0 1 tcp 1040 ------- 2 0.0 1.0 73 128
- 0.199712 0 1 tcp 1040 ------- 2 0.0 1.0 57 96
r 0.200048 0 1 tcp 1040 ------- 2 0.0 1.0 55 92
+ 0.200048 1 0 ack 40 ------- 2 1.0 0.0 55 129
- 0.200048 1 0 ack 40 ------- 2 1.0 0.0 55 129
r 0.200448 1 0 ack 40 ------- 2 1.0 0.0 54 127
+ 0.200448 0 1 tcp 1040 ------- 2 0.0 1.0 74 130
- 0.201376 0 1 tcp 1040 ------- 2 0.0 1.0 58 98
r 0.201712 0 1 tcp 1040 ------- 2 0.0 1.0 56 94
+ 0.201712 1 0 ack 40 ------- 2 1.0 0.0 56 131
- 0.201712 1 0 ack 40 ------- 2 1.0 0.0 56 131
r 0.202112 1 0 ack 40 ------- 2 1.0 0.0 55 129
+ 0.202112 0 1 tcp 1040 ------- 2 0.0 1.0 75 132
- 0.20304 0 1 tcp 1040 ------- 2 0.0 1.0 59 100
r 0.203376 0 1 tcp 1040 ------- 2 0.0 1.0 57 96
+ 0.203376 1 0 ack 40 ------- 2 1.0 0.0 57 133
- 0.203376 1 0 ack 40 ------- 2 1.0 0.0 57 133
r 0.203776 1 0 ack 40 ------- 2 1.0 0.0 56 131
+ 0.203776 0 1 tcp 1040 ------- 2 0.0 1.0 76 134
- 0.204704 0 1 tcp 1040 ------- 2 0.0 1.0 60 102
r 0.20504 0 1 tcp 1040 ------- 2 0.0 1.0 58 98
+ 0.20504 1 0 ack 40 ------- 2 1.0 0.0 58 135
- 0.20504 1 0 ack 40 ------- 2 1.0 0.0 58 135
r 0.20544 1 0 ack 40 ------- 2 1.0 0.0 57 133
+ 0.20544 0 1 tcp 1040 ------- 2 0.0 1.0 77 136
- 0.206368 0 1 tcp 1040 ------- 2 0.0 1.0 61 104
r 0.206704 0 1 tcp 1040 ------- 2 0.0 1.0 59 100
+ 0.206704 1 0 ack 40 ------- 2 1.0 0.0 59 137
- 0.206704 1 0 ack 40 ------- 2 1.0 0.0 59 137
r 0.207104 1 0 ack 40 ------- 2 1.0 0.0 58 135
+ 0.207104 0 1 tcp 1040 ------- 2 0.0 1.0 78 138
- 0.208032 0 1 tcp 1040 ------- 2 0.0 1.0 62 106
r 0.208368 0 1 tcp 1040 ------- 2 0.0 1.0 60 102
+ 0.208368 1 0 ack 40 ------- 2 1.0 0.0 60 139
- 0.208368 1 0 ack 40 ------- 2 1.0 0.0 60 139
r 0.208768 1 0 ack 40 ------- 2 1.0 0.0 59 137
+ 0.208768 0 1 tcp 1040 ------- 2 0.0 1.0 79 140
- 0.209696 0 1 tcp 1040 ------- 2 0.0 1.0 63 108
r 0.210032 0 1 tcp 1040 ------- 2 0.0 1.0 61 104
+ 0.210032 1 0 ack 40 ------- 2 1.0 0.0 61 141
- 0.210032 1 0 ack 40 ------- 2 1.0 0.0 61 141
r 0.210432 1 0 ack 40 ------- 2 1.0 0.0 60 139
+ 0.210432 0 1 tcp 1040 ------- 2 0.0 1.0 80 142
- 0.21136 0 1 tcp 1040 ------- 2 0.0 1.0 64 110
r 0.211696 0 1 tcp 1040 ------- 2 0.0 1.0 62 106
+ 0.211696 1 0 ack 40 ------- 2 1.0 0.0 62 143
- 0.211696 1 0 ack 40 ------- 2 1.0 0.0 62 143
r 0.212096 1 0 ack 40 ------- 2 1.0 0.0 61 141
+ 0.212096 0 1 tcp 1040 ------- 2 0.0 1.0 81 144
- 0.213024 0 1 tcp 1040 ------- 2 0.0 1.0 65 112
r 0.21336 0 1 tcp 1040 ------- 2 0.0 1.0 63 108
+ 0.21336 1 0 ack 40 ------- 2 1.0 0.0 63 145
- 0.21336 1 0 ack 40 ------- 2 1.0 0.0 63 145
r 0.21376 1 0 ack 40 ------- 2 1.0 0.0 62 143
+ 0.21376 0 1 tcp 1040 ------- 2 0.0 1.0 82 146
- 0.214688 0 1 tcp 1040 ------- 2 0.0 1.0 66 114
r 0.215024 0 1 tcp 1040 ------- 2 0.0 1.0 64 110
+ 0.215024 1 0 ack 40 ------- 2 1.0 0.0 64 147
- 0.215024 1 0 ack 40 ------- 2 1.0 0.0 64 147
r 0.215424 1 0 ack 40 ------- 2 1.0 0.0 63 145
+ 0.215424 0 1 tcp 1040 ------- 2 0.0 1.0 83 148
- 0.216352 0 1 tcp 1040 ------- 2 0.0 1.0 67 116
r 0.216688 0 1 tcp 1040 ------- 2 0.0 1.0 65 112
+ 0.216688 1 0 ack 40 ------- 2 1.0 0.0 65 149
- 0.216688 1 0 ack 40 ------- 2 1.0 0.0 65 149
r 0.217088 1 0 ack 40 ------- 2 1.0 0.0 64 147
+ 0.217088 0 1 tcp 1040 ------- 2 0.0 1.0 84 150
- 0.218016 0 1 tcp 1040 ------- 2 0.0 1.0 68 118
r 0.218352 0 1 tcp 1040 ------- 2 0.0 1.0 66 114
+ 0.218352 1 0 ack 40 ------- 2 1.0 0.0 66 151
- 0.218352 1 0 ack 40 ------- 2 1.0 0.0 66 151
r 0.218752 1 0 ack 40 ------- 2 1.0 0.0 65 149
+ 0.218752 0 1 tcp 1040 ------- 2 0.0 1.0 85 152
- 0.21968 0 1 tcp 1040 ------- 2 0.0 1.0 69 120
r 0.220016 0 1 tcp 1040 ------- 2 0.0 1.0 67 116
+ 0.220016 1 0 ack 40 ------- 2 1.0 0.0 67 153
- 0.220016 1 0 ack 40 ------- 2 1.0 0.0 67 153
r 0.220416 1 0 ack 40 ------- 2 1.0 0.0 66 151
+ 0.220416 0 1 tcp 1040 ------- 2 0.0 1.0 86 154
- 0.221344 0 1 tcp 1040 ------- 2 0.0 1.0 70 122
r 0.22168 0 1 tcp 1040 ------- 2 0.0 1.0 68 118
+ 0.22168 1 0 ack 40 ------- 2 1.0 0.0 68 155
- 0.22168 1 0 ack 40 ------- 2 1.0 0.0 68 155
r 0.22208 1 0 ack 40 ------- 2 1.0 0.0 67 153
+ 0.22208 0 1 tcp 1040 ------- 2 0.0 1.0 87 156
- 0.223008 0 1 tcp 1040 ------- 2 0.0 1.0 71 124
r 0.223344 0 1 tcp 1040 ------- 2 0.0 1.0 69 120
+ 0.223344 1 0 ack 40 ------- 2 1.0 0.0 69 157
- 0.223344 1 0 ack 40 ------- 2 1.0 0.0 69 157
r 0.223744 1 0 ack 40 ------- 2 1.0 0.0 68 155
+ 0.223744 0 1 tcp 1040 ------- 2 0.0 1.0 88 158
- 0.224672 0 1 tcp 1040 ------- 2 0.0 1.0 72 126
r 0.225008 0 1 tcp 1040 ------- 2 0.0 1.0 70 122
+ 0.225008 1 0 ack 40 ------- 2 1.0 0.0 70 159
- 0.225008 1 0 ack 40 ------- 2 1.0 0.0 70 159
r 0.225408 1 0 ack 40 ------- 2 1.0 0.0 69 157
+ 0.225408 0 1 tcp 1040 ------- 2 0.0 1.0 89 160
- 0.226336 0 1 tcp 1040 ------- 2 0.0 1.0 73 128
r 0.226672 0 1 tcp 1040 ------- 2 0.0 1.0 71 124
+ 0.226672 1 0 ack 40 ------- 2 1.0 0.0 71 161
- 0.226672 1 0 ack 40 ------- 2 1.0 0.0 71 161
r 0.227072 1 0 ack 40 ------- 2 1.0 0.0 70 159
+ 0.227072 0 1 tcp 1040 ------- 2 0.0 1.0 90 162
- 0.228 0 1 tcp 1040 ------- 2 0.0 1.0 74 130
r 0.228336 0 1 tcp 1040 ------- 2 0.0 1.0 72 126
+ 0.228336 1 0 ack 40 ------- 2 1.0 0.0 72 163
- 0.228336 1 0 ack 40 ------- 2 1.0 0.0 72 163
r 0.228736 1 0 ack 40 ------- 2 1.0 0.0 71 161
+ 0.228736 0 1 tcp 1040 ------- 2 0.0 1.0 91 164
- 0.229664 0 1 tcp 1040 ------- 2 0.0 1.0 75 132
r 0.23 0 1 tcp 1040 ------- 2 0.0 1.0 73 128
+ 0.23 1 0 ack 40 ------- 2 1.0 0.0 73 165
- 0.23 1 0 ack 40 ------- 2 1.0 0.0 73 165
r 0.2304 1 0 ack 40 ------- 2 1.0 0.0 72 163
+ 0.2304 0 1 tcp 1040 ------- 2 0.0 1.0 92 166
- 0.231328 0 1 tcp 1040 ------- 2 0.0 1.0 76 134
r 0.231664 0 1 tcp 1040 ------- 2 0.0 1.0 74 130
+ 0.231664 1 0 ack 40 ------- 2 1.0 0.0 74 167
- 0.231664 1 0 ack 40 ------- 2 1.0 0.0 74 167
r 0.232064 1 0 ack 40 ------- 2 1.0 0.0 73 165
+ 0.232064 0 1 tcp 1040 ------- 2 0.0 1.0 93 168
- 0.232992 0 1 tcp 1040 ------- 2 0.0 1.0 77 136
r 0.233328 0 1 tcp 1040 ------- 2 0.0 1.0 75 132
+ 0.233328 1 0 ack 40 ------- 2 1.0 0.0 75 169
- 0.233328 1 0 ack 40 ------- 2 1.0 0.0 75 169
r 0.233728 1 0 ack 40 ------- 2 1.0 0.0 74 167
+ 0.233728 0 1 tcp 1040 ------- 2 0.0 1.0 94 170
- 0.234656 0 1 tcp 1040 ------- 2 0.0 1.0 78 138
r 0.234992 0 1 tcp 1040 ------- 2 0.0 1.0 76 134
+ 0.234992 1 0 ack 40 ------- 2 1.0 0.0 76 171
- 0.234992 1 0 ack 40 ------- 2 1.0 0.0 76 171
r 0.235392 1 0 ack 40 ------- 2 1.0 0.0 75 169
+ 0.235392 0 1 tcp 1040 ------- 2 0.0 1.0 95 172
- 0.23632 0 1 tcp 1040 ------- 2 0.0 1.0 79 140
r 0.236656 0 1 tcp 1040 ------- 2 0.0 1.0 77 136
+ 0.236656 1 0 ack 40 ------- 2 1.0 0.0 77 173
- 0.236656 1 0 ack 40 ------- 2 1.0 0.0 77 173
r 0.237056 1 0 ack 40 ------- 2 1.0 0.0 76 171
+ 0.237056 0 1 tcp 1040 ------- 2 0.0 1.0 96 174
- 0.237984 0 1 tcp 1040 ------- 2 0.0 1.0 80 142
r 0.23832 0 1 tcp 1040 ------- 2 0.0 1.0 78 138
+ 0.23832 1 0 ack 40 ------- 2 1.0 0.0 78 175
- 0.23832 1 0 ack 40 ------- 2 1.0 0.0 78 175
r 0.23872 1 0 ack 40 ------- 2 1.0 0.0 77 173
+ 0.23872 0 1 tcp 1040 ------- 2 0.0 1.0 97 176
- 0.239648 0 1 tcp 1040 ------- 2 0.0 1.0 81 144
r 0.239984 0 1 tcp 1040 ------- 2 0.0 1.0 79 140
+ 0.239984 1 0 ack 40 ------- 2 1.0 0.0 79 177
- 0.239984 1 0 ack 40 ------- 2 1.0 0.0 79 177
r 0.240384 1 0 ack 40 ------- 2 1.0 0.0 78 175
+ 0.240384 0 1 tcp 1040 ------- 2 0.0 1.0 98 178
- 0.241312 0 1 tcp 1040 ------- 2 0.0 1.0 82 146
r 0.241648 0 1 tcp 1040 ------- 2 0.0 1.0 80 142
+ 0.241648 1 0 ack 40 ------- 2 1.0 0.0 80 179
- 0.241648 1 0 ack 40 ------- 2 1.0 0.0 80 179
r 0.242048 1 0 ack 40 ------- 2 1.0 0.0 79 177
+ 0.242048 0 1 tcp 1040 ------- 2 0.0 1.0 99 180
- 0.242976 0 1 tcp 1040 ------- 2 0.0 1.0 83 148
r 0.243312 0 1 tcp 1040 ------- 2 0.0 1.0 81 144
+ 0.243312 1 0 ack 40 ------- 2 1.0 0.0 81 181
- 0.243312 1 0 ack 40 ------- 2 1.0 0.0 81 181
r 0.243712 1 0 ack 40 ------- 2 1.0 0.0 80 179
+ 0.243712 0 1 tcp 1040 ------- 2 0.0 1.0 100 182
- 0.24464 0 1 tcp 1040 ------- 2 0.0 1.0 84 150
r 0.244976 0 1 tcp 1040 ------- 2 0.0 1.0 82 146
+ 0.244976 1 0 ack 40 ------- 2 1.0 0.0 82 183
- 0.244976 1 0 ack 40 ------- 2 1.0 0.0 82 183
r 0.245376 1 0 ack 40 ------- 2 1.0 0.0 81 181
+ 0.245376 0 1 tcp 1040 ------- 2 0.0 1.0 101 184
- 0.246304 0 1 tcp 1040 ------- 2 0.0 1.0 85 152
r 0.24664 0 1 tcp 1040 ------- 2 0.0 1.0 83 148
+ 0.24664 1 0 ack 40 ------- 2 1.0 0.0 83 185
- 0.24664 1 0 ack 40 ------- 2 1.0 0.0 83 185
r 0.24704 1 0 ack 40 ------- 2 1.0 0.0 82 183
+ 0.24704 0 1 tcp 1040 ------- 2 0.0 1.0 102 186
- 0.247968 0 1 tcp 1040 ------- 2 0.0 1.0 86 154
r 0.248304 0 1 tcp 1040 ------- 2 0.0 1.0 84 150
+ 0.248304 1 0 ack 40 ------- 2 1.0 0.0 84 187
- 0.248304 1 0 ack 40 ------- 2 1.0 0.0 84 187
r 0.248704 1 0 ack 40 ------- 2 1.0 0.0 83 185
+ 0.248704 0 1 tcp 1040 ------- 2 0.0 1.0 103 188
- 0.249632 0 1 tcp 1040 ------- 2 0.0 1.0 87 156
r 0.249968 0 1 tcp 1040 ------- 2 0.0 1.0 85 152
+ 0.249968 1 0 ack 40 ------- 2 1.0 0.0 85 189
- 0.249968 1 0 ack 40 ------- 2 1.0 0.0 85 189
r 0.250368 1 0 ack 40 ------- 2 1.0 0.0 84 187
+ 0.250368 0 1 tcp 1040 ------- 2 0.0 1.0 104 190
- 0.251296 0 1 tcp 1040 ------- 2 0.0 1.0 88 158
r 0.251632 0 1 tcp 1040 ------- 2 0.0 1.0 86 154
+ 0.251632 1 0 ack 40 ------- 2 1.0 0.0 86 191
- 0.251632 1 0 ack 40 ------- 2 1.0 0.0 86 191
r 0.252032 1 0 ack 40 ------- 2 1.0 0.0 85 189
+ 0.252032 0 1 tcp 1040 ------- 2 0.0 1.0 105 192
- 0.25296 0 1 tcp 1040 ------- 2 0.0 1.0 89 160
r 0.253296 0 1 tcp 1040 ------- 2 0.0 1.0 87 156
+ 0.253296 1 0 ack 40 ------- 2 1.0 0.0 87 193
- 0.253296 1 0 ack 40 ------- 2 1.0 0.0 87 193
r 0.253696 1 0 ack 40 ------- 2 1.0 0.0 86 191
+ 0.253696 0 1 tcp 1040 ------- 2 0.0 1.0 106 194
- 0.254624 0 1 tcp 1040 ------- 2 0.0 1.0 90 162
r 0.25496 0 1 tcp 1040 ------- 2 0.0 1.0 88 158
+ 0.25496 1 0 ack 40 ------- 2 1.0 0.0 88 195
- 0.25496 1 0 ack 40 ------- 2 1.0 0.0 88 195
r 0.25536 1 0 ack 40 ------- 2 1.0 0.0 87 193
+ 0.25536 0 1 tcp 1040 ------- 2 0.0 1.0 107 196
- 0.256288 0 1 tcp 1040 ------- 2 0.0 1.0 91 164
r 0.256624 0 1 tcp 1040 ------- 2 0.0 1.0 89 160
+ 0.256624 1 0 ack 40 ------- 2 1.0 0.0 89 197
- 0.256624 1 0 ack 40 ------- 2 1.0 0.0 89 197
r 0.257024 1 0 ack 40 ------- 2 1.0 0.0 88 195
+ 0.257024 0 1 tcp 1040 ------- 2 0.0 1.0 108 198
- 0.257952 0 1 tcp 1040 ------- 2 0.0 1.0 92 166
r 0.258288 0 1 tcp 1040 ------- 2 0.0 1.0 90 162
+ 0.258288 1 0 ack 40 ------- 2 1.0 0.0 90 199
- 0.258288 1 0 ack 40 ------- 2 1.0 0.0 90 199
r 0.258688 1 0 ack 40 ------- 2 1.0 0.0 89 197
+ 0.258688 0 1 tcp 1040 ------- 2 0.0 1.0 109 200
- 0.259616 0 1 tcp 1040 ------- 2 0.0 1.0 93 168
r 0.259952 0 1 tcp 1040 ------- 2 0.0 1.0 91 164
+ 0.259952 1 0 ack 40 ------- 2 1.0 0.0 91 201
- 0.259952 1 0 ack 40 ------- 2 1.0 0.0 91 201
r 0.260352 1 0 ack 40 ------- 2 1.0 0.0 90 199
+ 0.260352 0 1 tcp 1040 ------- 2 0.0 1.0 110 202
- 0.26128 0 1 tcp 1040 ------- 2 0.0 1.0 94 170
r 0.261616 0 1 tcp 1040 ------- 2 0.0 1.0 92 166
+ 0.261616 1 0 ack 40 ------- 2 1.0 0.0 92 203
- 0.261616 1 0 ack 40 ------- 2 1.0 0.0 92 203
r 0.262016 1 0 ack 40 ------- 2 1.0 0.0 91 201
+ 0.262016 0 1 tcp 1040 ------- 2 0.0 1.0 111 204
- 0.262944 0 1 tcp 1040 ------- 2 0.0 1.0 95 172
r 0.26328 0 1 tcp 1040 ------- 2 0.0 1.0 93 168
+ 0.26328 1 0 ack 40 ------- 2 1.0 0.0 93 205
- 0.26328 1 0 ack 40 ------- 2 1.0 0.0 93 205
r 0.26368 1 0 ack 40 ------- 2 1.0 0.0 92 203
+ 0.26368 0 1 tcp 1040 ------- 2 0.0 1.0 112 206
- 0.264608 0 1 tcp 1040 ------- 2 0.0 1.0 96 174
r 0.264944 0 1 tcp 1040 ------- 2 0.0 1.0 94 170
+ 0.264944 1 0 ack 40 ------- 2 1.0 0.0 94 207
- 0.264944 1 0 ack 40 ------- 2 1.0 0.0 94 207
r 0.265344 1 0 ack 40 ------- 2 1.0 0.0 93 205
+ 0.265344 0 1 tcp 1040 ------- 2 0.0 1.0 113 208
- 0.266272 0 1 tcp 1040 ------- 2 0.0 1.0 97 176
r 0.266608 0 1 tcp 1040 ------- 2 0.0 1.0 95 172
+ 0.266608 1 0 ack 40 ------- 2 1.0 0.0 95 209
- 0.266608 1 0 ack 40 ------- 2 1.0 0.0 95 209
r 0.267008 1 0 ack 40 ------- 2 1.0 0.0 94 207
+ 0.267008 0 1 tcp 1040 ------- 2 0.0 1.0 114 210
- 0.267936 0 1 tcp 1040 ------- 2 0.0 1.0 98 178
r 0.268272 0 1 tcp 1040 ------- 2 0.0 1.0 96 174
+ 0.268272 1 0 ack 40 ------- 2 1.0 0.0 96 211
- 0.268272 1 0 ack 40 ------- 2 1.0 0.0 96 211
r 0.268672 1 0 ack 40 ------- 2 1.0 0.0 95 209
+ 0.268672 0 1 tcp 1040 ------- 2 0.0 1.0 115 212
- 0.2696 0 1 tcp 1040 ------- 2 0.0 1.0 99 180
r 0.269936 0 1 tcp 1040 ------- 2 0.0 1.0 97 176
+ 0.269936 1 0 ack 40 ------- 2 1.0 0.0 97 213
- 0.269936 1 0 ack 40 ------- 2 1.0 0.0 97 213
r 0.270336 1 0 ack 40 ------- 2 1.0 0.0 96 211
+ 0.270336 0 1 tcp 1040 ------- 2 0.0 1.0 116 214
- 0.271264 0 1 tcp 1040 ------- 2 0.0 1.0 100 182
r 0.2716 0 1 tcp 1040 ------- 2 0.0 1.0 98 178
+ 0.2716 1 0 ack 40 ------- 2 1.0 0.0 98 215
- 0.2716 1 0 ack 40 ------- 2 1.0 0.0 98 215
r 0.272 1 0 ack 40 ------- 2 1.0 0.0 97 213
+ 0.272 0 1 tcp 1040 ------- 2 0.0 1.0 117 216
- 0.272928 0 1 tcp 1040 ------- 2 0.0 1.0 101 184
r 0.273264 0 1 tcp 1040 ------- 2 0.0 1.0 99 180
+ 0.273264 1 0 ack 40 ------- 2 1.0 0.0 99 217
- 0.273264 1 0 ack 40 ------- 2 1.0 0.0 99 217
r 0.273664 1 0 ack 40 ------- 2 1.0 0.0 98 215
+ 0.273664 0 1 tcp 1040 ------- 2 0.0 1.0 118 218
- 0.274592 0 1 tcp 1040 ------- 2 0.0 1.0 102 186
r 0.274928 0 1 tcp 1040 ------- 2 0.0 1.0 100 182
+ 0.274928 1 0 ack 40 ------- 2 1.0 0.0 100 219
- 0.274928 1 0 ack 40 ------- 2 1.0 0.0 100 219
r 0.275328 1 0 ack 40 ------- 2 1.0 0.0 99 217
+ 0.275328 0 1 tcp 1040 ------- 2 0.0 1.0 119 220
- 0.276256 0 1 tcp 1040 ------- 2 0.0 1.0 103 188
r 0.276592 0 1 tcp 1040 ------- 2 0.0 1.0 101 184
+ 0.276592 1 0 ack 40 ------- 2 1.0 0.0 101 221
- 0.276592 1 0 ack 40 ------- 2 1.0 0.0 101 221
r 0.276992 1 0 ack 40 ------- 2 1.0 0.0 100 219
+ 0.276992 0 1 tcp 1040 ------- 2 0.0 1.0 120 222
- 0.27792 0 1 tcp 1040 ------- 2 0.0 1.0 104 190
r 0.278256 0 1 tcp 1040 ------- 2 0.0 1.0 102 186
+ 0.278256 1 0 ack 40 ------- 2 1.0 0.0 102 223