+ 0.1 0 1 cbr 210 ------- 0 0.0 1.0 0 0
- 0.1 0 1 cbr 210 ------- 0 0.0 1.0 0 0
r 0.102336 0 1 cbr 210 ------- 0 0.0 1.0 0 0
+ 0.10375 0 1 cbr 210 ------- 0 0.0 1.0 1 1
- 0.10375 0 1 cbr 210 ------- 0 0.0 1.0 1 1
r 0.106086 0 1 cbr 210 ------- 0 0.0 1.0 1 1
+ 0.1075 0 1 cbr 210 ------- 0 0.0 1.0 2 2
- 0.1075 0 1 cbr 210 ------- 0 0.0 1.0 2 2
r 0.109836 0 1 cbr 210 ------- 0 0.0 1.0 2 2
+ 0.11125 0 1 cbr 210 ------- 0 0.0 1.0 3 3
- 0.11125 0 1 cbr 210 ------- 0 0.0 1.0 3 3
r 0.113586 0 1 cbr 210 ------- 0 0.0 1.0 3 3
+ 0.115 0 1 cbr 210 ------- 0 0.0 1.0 4 4
- 0.115 0 1 cbr 210 ------- 0 0.0 1.0 4 4
r 0.117336 0 1 cbr 210 ------- 0 0.0 1.0 4 4
+ 0.11875 0 1 cbr 210 ------- 0 0.0 1.0 5 5
- 0.11875 0 1 cbr 210 ------- 0 0.0 1.0 5 5
r 0.121086 0 1 cbr 210 ------- 0 0.0 1.0 5 5
+ 0.1225 0 1 cbr 210 ------- 0 0.0 1.0 6 6
- 0.1225 0 1 cbr 210 ------- 0 0.0 1.0 6 6
r 0.124836 0 1 cbr 210 ------- 0 0.0 1.0 6 6
+ 0.12625 0 1 cbr 210 ------- 0 0.0 1.0 7 7
- 0.12625 0 1 cbr 210 ------- 0 0.0 1.0 7 7
r 0.128586 0 1 cbr 210 ------- 0 0.0 1.0 7 7
+ 0.13 0 1 cbr 210 ------- 0 0.0 1.0 8 8
- 0.13 0 1 cbr 210 ------- 0 0.0 1.0 8 8
r 0.132336 0 1 cbr 210 ------- 0 0.0 1.0 8 8
+ 0.13375 0 1 cbr 210 ------- 0 0.0 1.0 9 9
- 0.13375 0 1 cbr 210 ------- 0 0.0 1.0 9 9
r 0.136086 0 1 cbr 210 ------- 0 0.0 1.0 9 9
+ 0.1375 0 1 cbr 210 ------- 0 0.0 1.0 10 10
- 0.1375 0 1 cbr 210 ------- 0 0.0 1.0 10 10
r 0.139836 0 1 cbr 210 ------- 0 0.0 1.0 10 10
+ 0.14125 0 1 cbr 210 ------- 0 0.0 1.0 11 11
- 0.14125 0 1 cbr 210 ------- 0 0.0 1.0 11 11
r 0.143586 0 1 cbr 210 ------- 0 0.0 1.0 11 11
+ 0.145 0 1 cbr 210 ------- 0 0.0 1.0 12 12
- 0.145 0 1 cbr 210 ------- 0 0.0 1.0 12 12
r 0.147336 0 1 cbr 210 ------- 0 0.0 1.0 12 12
+ 0.14875 0 1 cbr 210 ------- 0 0.0 1.0 13 13
- 0.14875 0 1 cbr 210 ------- 0 0.0 1.0 13 13
r 0.151086 0 1 cbr 210 ------- 0 0.0 1.0 13 13
+ 0.1525 0 1 cbr 210 ------- 0 0.0 1.0 14 14
- 0.1525 0 1 cbr 210 ------- 0 0.0 1.0 14 14
r 0.154836 0 1 cbr 210 ------- 0 0.0 1.0 14 14
+ 0.15625 0 1 cbr 210 ------- 0 0.0 1.0 15 15
- 0.15625 0 1 cbr 210 ------- 0 0.0 1.0 15 15
r 0.158586 0 1 cbr 210 ------- 0 0.0 1.0 15 15
+ 0.16 0 1 cbr 210 ------- 0 0.0 1.0 16 16
- 0.16 0 1 cbr 210 ------- 0 0.0 1.0 16 16
r 0.162336 0 1 cbr 210 ------- 0 0.0 1.0 16 16
+ 0.16375 0 1 cbr 210 ------- 0 0.0 1.0 17 17
- 0.16375 0 1 cbr 210 ------- 0 0.0 1.0 17 17
r 0.166086 0 1 cbr 210 ------- 0 0.0 1.0 17 17
+ 0.1675 0 1 cbr 210 ------- 0 0.0 1.0 18 18
- 0.1675 0 1 cbr 210 ------- 0 0.0 1.0 18 18
r 0.169836 0 1 cbr 210 ------- 0 0.0 1.0 18 18
+ 0.17125 0 1 cbr 210 ------- 0 0.0 1.0 19 19
- 0.17125 0 1 cbr 210 ------- 0 0.0 1.0 19 19
r 0.173586 0 1 cbr 210 ------- 0 0.0 1.0 19 19
+ 0.175 0 1 cbr 210 ------- 0 0.0 1.0 20 20
- 0.175 0 1 cbr 210 ------- 0 0.0 1.0 20 20
r 0.177336 0 1 cbr 210 ------- 0 0.0 1.0 20 20
+ 0.17875 0 1 cbr 210 ------- 0 0.0 1.0 21 21
- 0.17875 0 1 cbr 210 ------- 0 0.0 1.0 21 21
r 0.181086 0 1 cbr 210 ------- 0 0.0 1.0 21 21
+ 0.1825 0 1 cbr 210 ------- 0 0.0 1.0 22 22
- 0.1825 0 1 cbr 210 ------- 0 0.0 1.0 22 22
r 0.184836 0 1 cbr 210 ------- 0 0.0 1.0 22 22
+ 0.18625 0 1 cbr 210 ------- 0 0.0 1.0 23 23
- 0.18625 0 1 cbr 210 ------- 0 0.0 1.0 23 23
r 0.188586 0 1 cbr 210 ------- 0 0.0 1.0 23 23
+ 0.19 0 1 cbr 210 ------- 0 0.0 1.0 24 24
- 0.19 0 1 cbr 210 ------- 0 0.0 1.0 24 24
r 0.192336 0 1 cbr 210 ------- 0 0.0 1.0 24 24
+ 0.19375 0 1 cbr 210 ------- 0 0.0 1.0 25 25
- 0.19375 0 1 cbr 210 ------- 0 0.0 1.0 25 25
r 0.196086 0 1 cbr 210 ------- 0 0.0 1.0 25 25
+ 0.1975 0 1 cbr 210 ------- 0 0.0 1.0 26 26
- 0.1975 0 1 cbr 210 ------- 0 0.0 1.0 26 26
r 0.199836 0 1 cbr 210 ------- 0 0.0 1.0 26 26
+ 0.20125 0 1 cbr 210 ------- 0 0.0 1.0 27 27
- 0.20125 0 1 cbr 210 ------- 0 0.0 1.0 27 27
r 0.203586 0 1 cbr 210 ------- 0 0.0 1.0 27 27
+ 0.205 0 1 cbr 210 ------- 0 0.0 1.0 28 28
- 0.205 0 1 cbr 210 ------- 0 0.0 1.0 28 28
r 0.207336 0 1 cbr 210 ------- 0 0.0 1.0 28 28
+ 0.20875 0 1 cbr 210 ------- 0 0.0 1.0 29 29
- 0.20875 0 1 cbr 210 ------- 0 0.0 1.0 29 29
r 0.211086 0 1 cbr 210 ------- 0 0.0 1.0 29 29
+ 0.2125 0 1 cbr 210 ------- 0 0.0 1.0 30 30
- 0.2125 0 1 cbr 210 ------- 0 0.0 1.0 30 30
r 0.214836 0 1 cbr 210 ------- 0 0.0 1.0 30 30
+ 0.21625 0 1 cbr 210 ------- 0 0.0 1.0 31 31
- 0.21625 0 1 cbr 210 ------- 0 0.0 1.0 31 31
r 0.218586 0 1 cbr 210 ------- 0 0.0 1.0 31 31
+ 0.22 0 1 cbr 210 ------- 0 0.0 1.0 32 32
- 0.22 0 1 cbr 210 ------- 0 0.0 1.0 32 32
r 0.222336 0 1 cbr 210 ------- 0 0.0 1.0 32 32
+ 0.22375 0 1 cbr 210 ------- 0 0.0 1.0 33 33
- 0.22375 0 1 cbr 210 ------- 0 0.0 1.0 33 33
r 0.226086 0 1 cbr 210 ------- 0 0.0 1.0 33 33
+ 0.2275 0 1 cbr 210 ------- 0 0.0 1.0 34 34
- 0.2275 0 1 cbr 210 ------- 0 0.0 1.0 34 34
r 0.229836 0 1 cbr 210 ------- 0 0.0 1.0 34 34
+ 0.23125 0 1 cbr 210 ------- 0 0.0 1.0 35 35
- 0.23125 0 1 cbr 210 ------- 0 0.0 1.0 35 35
r 0.233586 0 1 cbr 210 ------- 0 0.0 1.0 35 35
+ 0.235 0 1 cbr 210 ------- 0 0.0 1.0 36 36
- 0.235 0 1 cbr 210 ------- 0 0.0 1.0 36 36
r 0.237336 0 1 cbr 210 ------- 0 0.0 1.0 36 36
+ 0.23875 0 1 cbr 210 ------- 0 0.0 1.0 37 37
- 0.23875 0 1 cbr 210 ------- 0 0.0 1.0 37 37
r 0.241086 0 1 cbr 210 ------- 0 0.0 1.0 37 37
+ 0.2425 0 1 cbr 210 ------- 0 0.0 1.0 38 38
- 0.2425 0 1 cbr 210 ------- 0 0.0 1.0 38 38
r 0.244836 0 1 cbr 210 ------- 0 0.0 1.0 38 38
+ 0.24625 0 1 cbr 210 ------- 0 0.0 1.0 39 39
- 0.24625 0 1 cbr 210 ------- 0 0.0 1.0 39 39
r 0.248586 0 1 cbr 210 ------- 0 0.0 1.0 39 39
+ 0.25 0 1 cbr 210 ------- 0 0.0 1.0 40 40
- 0.25 0 1 cbr 210 ------- 0 0.0 1.0 40 40
r 0.252336 0 1 cbr 210 ------- 0 0.0 1.0 40 40
+ 0.25375 0 1 cbr 210 ------- 0 0.0 1.0 41 41
- 0.25375 0 1 cbr 210 ------- 0 0.0 1.0 41 41
r 0.256086 0 1 cbr 210 ------- 0 0.0 1.0 41 41
+ 0.2575 0 1 cbr 210 ------- 0 0.0 1.0 42 42
- 0.2575 0 1 cbr 210 ------- 0 0.0 1.0 42 42
r 0.259836 0 1 cbr 210 ------- 0 0.0 1.0 42 42
+ 0.26125 0 1 cbr 210 ------- 0 0.0 1.0 43 43
- 0.26125 0 1 cbr 210 ------- 0 0.0 1.0 43 43
r 0.263586 0 1 cbr 210 ------- 0 0.0 1.0 43 43
+ 0.265 0 1 cbr 210 ------- 0 0.0 1.0 44 44
- 0.265 0 1 cbr 210 ------- 0 0.0 1.0 44 44
r 0.267336 0 1 cbr 210 ------- 0 0.0 1.0 44 44
+ 0.26875 0 1 cbr 210 ------- 0 0.0 1.0 45 45
- 0.26875 0 1 cbr 210 ------- 0 0.0 1.0 45 45
r 0.271086 0 1 cbr 210 ------- 0 0.0 1.0 45 45
+ 0.2725 0 1 cbr 210 ------- 0 0.0 1.0 46 46
- 0.2725 0 1 cbr 210 ------- 0 0.0 1.0 46 46
r 0.274836 0 1 cbr 210 ------- 0 0.0 1.0 46 46
+ 0.27625 0 1 cbr 210 ------- 0 0.0 1.0 47 47
- 0.27625 0 1 cbr 210 ------- 0 0.0 1.0 47 47
r 0.278586 0 1 cbr 210 ------- 0 0.0 1.0 47 47
+ 0.28 0 1 cbr 210 ------- 0 0.0 1.0 48 48
- 0.28 0 1 cbr 210 ------- 0 0.0 1.0 48 48
r 0.282336 0 1 cbr 210 ------- 0 0.0 1.0 48 48
+ 0.28375 0 1 cbr 210 ------- 0 0.0 1.0 49 49
- 0.28375 0 1 cbr 210 ------- 0 0.0 1.0 49 49
r 0.286086 0 1 cbr 210 ------- 0 0.0 1.0 49 49
+ 0.2875 0 1 cbr 210 ------- 0 0.0 1.0 50 50
- 0.2875 0 1 cbr 210 ------- 0 0.0 1.0 50 50
r 0.289836 0 1 cbr 210 ------- 0 0.0 1.0 50 50
+ 0.29125 0 1 cbr 210 ------- 0 0.0 1.0 51 51
- 0.29125 0 1 cbr 210 ------- 0 0.0 1.0 51 51
r 0.293586 0 1 cbr 210 ------- 0 0.0 1.0 51 51
+ 0.295 0 1 cbr 210 ------- 0 0.0 1.0 52 52
- 0.295 0 1 cbr 210 ------- 0 0.0 1.0 52 52
r 0.297336 0 1 cbr 210 ------- 0 0.0 1.0 52 52
+ 0.29875 0 1 cbr 210 ------- 0 0.0 1.0 53 53
- 0.29875 0 1 cbr 210 ------- 0 0.0 1.0 53 53
r 0.301086 0 1 cbr 210 ------- 0 0.0 1.0 53 53
+ 0.3025 0 1 cbr 210 ------- 0 0.0 1.0 54 54
- 0.3025 0 1 cbr 210 ------- 0 0.0 1.0 54 54
r 0.304836 0 1 cbr 210 ------- 0 0.0 1.0 54 54
+ 0.30625 0 1 cbr 210 ------- 0 0.0 1.0 55 55
- 0.30625 0 1 cbr 210 ------- 0 0.0 1.0 55 55
r 0.308586 0 1 cbr 210 ------- 0 0.0 1.0 55 55
+ 0.31 0 1 cbr 210 ------- 0 0.0 1.0 56 56
- 0.31 0 1 cbr 210 ------- 0 0.0 1.0 56 56
r 0.312336 0 1 cbr 210 ------- 0 0.0 1.0 56 56
+ 0.31375 0 1 cbr 210 ------- 0 0.0 1.0 57 57
- 0.31375 0 1 cbr 210 ------- 0 0.0 1.0 57 57
r 0.316086 0 1 cbr 210 ------- 0 0.0 1.0 57 57
+ 0.3175 0 1 cbr 210 ------- 0 0.0 1.0 58 58
- 0.3175 0 1 cbr 210 ------- 0 0.0 1.0 58 58
r 0.319836 0 1 cbr 210 ------- 0 0.0 1.0 58 58
+ 0.32125 0 1 cbr 210 ------- 0 0.0 1.0 59 59
- 0.32125 0 1 cbr 210 ------- 0 0.0 1.0 59 59
r 0.323586 0 1 cbr 210 ------- 0 0.0 1.0 59 59
+ 0.325 0 1 cbr 210 ------- 0 0.0 1.0 60 60
- 0.325 0 1 cbr 210 ------- 0 0.0 1.0 60 60
r 0.327336 0 1 cbr 210 ------- 0 0.0 1.0 60 60
+ 0.32875 0 1 cbr 210 ------- 0 0.0 1.0 61 61
- 0.32875 0 1 cbr 210 ------- 0 0.0 1.0 61 61
r 0.331086 0 1 cbr 210 ------- 0 0.0 1.0 61 61
+ 0.3325 0 1 cbr 210 ------- 0 0.0 1.0 62 62
- 0.3325 0 1 cbr 210 ------- 0 0.0 1.0 62 62
r 0.334836 0 1 cbr 210 ------- 0 0.0 1.0 62 62
+ 0.33625 0 1 cbr 210 ------- 0 0.0 1.0 63 63
- 0.33625 0 1 cbr 210 ------- 0 0.0 1.0 63 63
r 0.338586 0 1 cbr 210 ------- 0 0.0 1.0 63 63
+ 0.34 0 1 cbr 210 ------- 0 0.0 1.0 64 64
- 0.34 0 1 cbr 210 ------- 0 0.0 1.0 64 64
r 0.342336 0 1 cbr 210 ------- 0 0.0 1.0 64 64
+ 0.34375 0 1 cbr 210 ------- 0 0.0 1.0 65 65
- 0.34375 0 1 cbr 210 ------- 0 0.0 1.0 65 65
r 0.346086 0 1 cbr 210 ------- 0 0.0 1.0 65 65
+ 0.3475 0 1 cbr 210 ------- 0 0.0 1.0 66 66
- 0.3475 0 1 cbr 210 ------- 0 0.0 1.0 66 66
r 0.349836 0 1 cbr 210 ------- 0 0.0 1.0 66 66
+ 0.35125 0 1 cbr 210 ------- 0 0.0 1.0 67 67
- 0.35125 0 1 cbr 210 ------- 0 0.0 1.0 67 67
r 0.353586 0 1 cbr 210 ------- 0 0.0 1.0 67 67
+ 0.355 0 1 cbr 210 ------- 0 0.0 1.0 68 68
- 0.355 0 1 cbr 210 ------- 0 0.0 1.0 68 68
r 0.357336 0 1 cbr 210 ------- 0 0.0 1.0 68 68
+ 0.35875 0 1 cbr 210 ------- 0 0.0 1.0 69 69
- 0.35875 0 1 cbr 210 ------- 0 0.0 1.0 69 69
r 0.361086 0 1 cbr 210 ------- 0 0.0 1.0 69 69
+ 0.3625 0 1 cbr 210 ------- 0 0.0 1.0 70 70
- 0.3625 0 1 cbr 210 ------- 0 0.0 1.0 70 70
r 0.364836 0 1 cbr 210 ------- 0 0.0 1.0 70 70
+ 0.36625 0 1 cbr 210 ------- 0 0.0 1.0 71 71
- 0.36625 0 1 cbr 210 ------- 0 0.0 1.0 71 71
r 0.368586 0 1 cbr 210 ------- 0 0.0 1.0 71 71
+ 0.37 0 1 cbr 210 ------- 0 0.0 1.0 72 72
- 0.37 0 1 cbr 210 ------- 0 0.0 1.0 72 72
r 0.372336 0 1 cbr 210 ------- 0 0.0 1.0 72 72
+ 0.37375 0 1 cbr 210 ------- 0 0.0 1.0 73 73
- 0.37375 0 1 cbr 210 ------- 0 0.0 1.0 73 73
r 0.376086 0 1 cbr 210 ------- 0 0.0 1.0 73 73
+ 0.3775 0 1 cbr 210 ------- 0 0.0 1.0 74 74
- 0.3775 0 1 cbr 210 ------- 0 0.0 1.0 74 74
r 0.379836 0 1 cbr 210 ------- 0 0.0 1.0 74 74
+ 0.38125 0 1 cbr 210 ------- 0 0.0 1.0 75 75
- 0.38125 0 1 cbr 210 ------- 0 0.0 1.0 75 75
r 0.383586 0 1 cbr 210 ------- 0 0.0 1.0 75 75
+ 0.385 0 1 cbr 210 ------- 0 0.0 1.0 76 76
- 0.385 0 1 cbr 210 ------- 0 0.0 1.0 76 76
r 0.387336 0 1 cbr 210 ------- 0 0.0 1.0 76 76
+ 0.38875 0 1 cbr 210 ------- 0 0.0 1.0 77 77
- 0.38875 0 1 cbr 210 ------- 0 0.0 1.0 77 77
r 0.391086 0 1 cbr 210 ------- 0 0.0 1.0 77 77
+ 0.3925 0 1 cbr 210 ------- 0 0.0 1.0 78 78
- 0.3925 0 1 cbr 210 ------- 0 0.0 1.0 78 78
r 0.394836 0 1 cbr 210 ------- 0 0.0 1.0 78 78
+ 0.39625 0 1 cbr 210 ------- 0 0.0 1.0 79 79
- 0.39625 0 1 cbr 210 ------- 0 0.0 1.0 79 79
r 0.398586 0 1 cbr 210 ------- 0 0.0 1.0 79 79
+ 0.4 0 1 cbr 210 ------- 0 0.0 1.0 80 80
- 0.4 0 1 cbr 210 ------- 0 0.0 1.0 80 80
r 0.402336 0 1 cbr 210 ------- 0 0.0 1.0 80 80
+ 0.40375 0 1 cbr 210 ------- 0 0.0 1.0 81 81
- 0.40375 0 1 cbr 210 ------- 0 0.0 1.0 81 81
r 0.406086 0 1 cbr 210 ------- 0 0.0 1.0 81 81
+ 0.4075 0 1 cbr 210 ------- 0 0.0 1.0 82 82
- 0.4075 0 1 cbr 210 ------- 0 0.0 1.0 82 82
r 0.409836 0 1 cbr 210 ------- 0 0.0 1.0 82 82
+ 0.41125 0 1 cbr 210 ------- 0 0.0 1.0 83 83
- 0.41125 0 1 cbr 210 ------- 0 0.0 1.0 83 83
r 0.413586 0 1 cbr 210 ------- 0 0.0 1.0 83 83
+ 0.415 0 1 cbr 210 ------- 0 0.0 1.0 84 84
- 0.415 0 1 cbr 210 ------- 0 0.0 1.0 84 84
r 0.417336 0 1 cbr 210 ------- 0 0.0 1.0 84 84
+ 0.41875 0 1 cbr 210 ------- 0 0.0 1.0 85 85
- 0.41875 0 1 cbr 210 ------- 0 0.0 1.0 85 85
r 0.421086 0 1 cbr 210 ------- 0 0.0 1.0 85 85
+ 0.4225 0 1 cbr 210 ------- 0 0.0 1.0 86 86
- 0.4225 0 1 cbr 210 ------- 0 0.0 1.0 86 86
r 0.424836 0 1 cbr 210 ------- 0 0.0 1.0 86 86
+ 0.42625 0 1 cbr 210 ------- 0 0.0 1.0 87 87
- 0.42625 0 1 cbr 210 ------- 0 0.0 1.0 87 87
r 0.428586 0 1 cbr 210 ------- 0 0.0 1.0 87 87
+ 0.43 0 1 cbr 210 ------- 0 0.0 1.0 88 88
- 0.43 0 1 cbr 210 ------- 0 0.0 1.0 88 88
r 0.432336 0 1 cbr 210 ------- 0 0.0 1.0 88 88
+ 0.43375 0 1 cbr 210 ------- 0 0.0 1.0 89 89
- 0.43375 0 1 cbr 210 ------- 0 0.0 1.0 89 89
r 0.436086 0 1 cbr 210 ------- 0 0.0 1.0 89 89
+ 0.4375 0 1 cbr 210 ------- 0 0.0 1.0 90 90
- 0.4375 0 1 cbr 210 ------- 0 0.0 1.0 90 90
r 0.439836 0 1 cbr 210 ------- 0 0.0 1.0 90 90
+ 0.44125 0 1 cbr 210 ------- 0 0.0 1.0 91 91
- 0.44125 0 1 cbr 210 ------- 0 0.0 1.0 91 91
r 0.443586 0 1 cbr 210 ------- 0 0.0 1.0 91 91
+ 0.445 0 1 cbr 210 ------- 0 0.0 1.0 92 92
- 0.445 0 1 cbr 210 ------- 0 0.0 1.0 92 92
r 0.447336 0 1 cbr 210 ------- 0 0.0 1.0 92 92
+ 0.44875 0 1 cbr 210 ------- 0 0.0 1.0 93 93
- 0.44875 0 1 cbr 210 ------- 0 0.0 1.0 93 93
r 0.451086 0 1 cbr 210 ------- 0 0.0 1.0 93 93
+ 0.4525 0 1 cbr 210 ------- 0 0.0 1.0 94 94
- 0.4525 0 1 cbr 210 ------- 0 0.0 1.0 94 94
r 0.454836 0 1 cbr 210 ------- 0 0.0 1.0 94 94
+ 0.45625 0 1 cbr 210 ------- 0 0.0 1.0 95 95
- 0.45625 0 1 cbr 210 ------- 0 0.0 1.0 95 95
r 0.458586 0 1 cbr 210 ------- 0 0.0 1.0 95 95
+ 0.46 0 1 cbr 210 ------- 0 0.0 1.0 96 96
- 0.46 0 1 cbr 210 ------- 0 0.0 1.0 96 96
r 0.462336 0 1 cbr 210 ------- 0 0.0 1.0 96 96
+ 0.46375 0 1 cbr 210 ------- 0 0.0 1.0 97 97
- 0.46375 0 1 cbr 210 ------- 0 0.0 1.0 97 97
r 0.466086 0 1 cbr 210 ------- 0 0.0 1.0 97 97
+ 0.4675 0 1 cbr 210 ------- 0 0.0 1.0 98 98
- 0.4675 0 1 cbr 210 ------- 0 0.0 1.0 98 98
r 0.469836 0 1 cbr 210 ------- 0 0.0 1.0 98 98
+ 0.47125 0 1 cbr 210 ------- 0 0.0 1.0 99 99
- 0.47125 0 1 cbr 210 ------- 0 0.0 1.0 99 99
r 0.473586 0 1 cbr 210 ------- 0 0.0 1.0 99 99
+ 0.475 0 1 cbr 210 ------- 0 0.0 1.0 100 100
- 0.475 0 1 cbr 210 ------- 0 0.0 1.0 100 100
r 0.477336 0 1 cbr 210 ------- 0 0.0 1.0 100 100
+ 0.47875 0 1 cbr 210 ------- 0 0.0 1.0 101 101
- 0.47875 0 1 cbr 210 ------- 0 0.0 1.0 101 101
r 0.481086 0 1 cbr 210 ------- 0 0.0 1.0 101 101
+ 0.4825 0 1 cbr 210 ------- 0 0.0 1.0 102 102
- 0.4825 0 1 cbr 210 ------- 0 0.0 1.0 102 102
r 0.484836 0 1 cbr 210 ------- 0 0.0 1.0 102 102
+ 0.48625 0 1 cbr 210 ------- 0 0.0 1.0 103 103
- 0.48625 0 1 cbr 210 ------- 0 0.0 1.0 103 103
r 0.488586 0 1 cbr 210 ------- 0 0.0 1.0 103 103
+ 0.49 0 1 cbr 210 ------- 0 0.0 1.0 104 104
- 0.49 0 1 cbr 210 ------- 0 0.0 1.0 104 104
r 0.492336 0 1 cbr 210 ------- 0 0.0 1.0 104 104
+ 0.49375 0 1 cbr 210 ------- 0 0.0 1.0 105 105
- 0.49375 0 1 cbr 210 ------- 0 0.0 1.0 105 105
r 0.496086 0 1 cbr 210 ------- 0 0.0 1.0 105 105
+ 0.4975 0 1 cbr 210 ------- 0 0.0 1.0 106 106
- 0.4975 0 1 cbr 210 ------- 0 0.0 1.0 106 106
r 0.499836 0 1 cbr 210 ------- 0 0.0 1.0 106 106
+ 0.50125 0 1 cbr 210 ------- 0 0.0 1.0 107 107
- 0.50125 0 1 cbr 210 ------- 0 0.0 1.0 107 107
r 0.503586 0 1 cbr 210 ------- 0 0.0 1.0 107 107
+ 0.505 0 1 cbr 210 ------- 0 0.0 1.0 108 108
- 0.505 0 1 cbr 210 ------- 0 0.0 1.0 108 108
r 0.507336 0 1 cbr 210 ------- 0 0.0 1.0 108 108
+ 0.50875 0 1 cbr 210 ------- 0 0.0 1.0 109 109
- 0.50875 0 1 cbr 210 ------- 0 0.0 1.0 109 109
r 0.511086 0 1 cbr 210 ------- 0 0.0 1.0 109 109
+ 0.5125 0 1 cbr 210 ------- 0 0.0 1.0 110 110
- 0.5125 0 1 cbr 210 ------- 0 0.0 1.0 110 110
r 0.514836 0 1 cbr 210 ------- 0 0.0 1.0 110 110
+ 0.51625 0 1 cbr 210 ------- 0 0.0 1.0 111 111
- 0.51625 0 1 cbr 210 ------- 0 0.0 1.0 111 111
r 0.518586 0 1 cbr 210 ------- 0 0.0 1.0 111 111
+ 0.52 0 1 cbr 210 ------- 0 0.0 1.0 112 112
- 0.52 0 1 cbr 210 ------- 0 0.0 1.0 112 112
r 0.522336 0 1 cbr 210 ------- 0 0.0 1.0 112 112
+ 0.52375 0 1 cbr 210 ------- 0 0.0 1.0 113 113
- 0.52375 0 1 cbr 210 ------- 0 0.0 1.0 113 113
r 0.526086 0 1 cbr 210 ------- 0 0.0 1.0 113 113
+ 0.5275 0 1 cbr 210 ------- 0 0.0 1.0 114 114
- 0.5275 0 1 cbr 210 ------- 0 0.0 1.0 114 114
r 0.529836 0 1 cbr 210 ------- 0 0.0 1.0 114 114
+ 0.53125 0 1 cbr 210 ------- 0 0.0 1.0 115 115
- 0.53125 0 1 cbr 210 ------- 0 0.0 1.0 115 115
r 0.533586 0 1 cbr 210 ------- 0 0.0 1.0 115 115
+ 0.535 0 1 cbr 210 ------- 0 0.0 1.0 116 116
- 0.535 0 1 cbr 210 ------- 0 0.0 1.0 116 116
r 0.537336 0 1 cbr 210 ------- 0 0.0 1.0 116 116
+ 0.53875 0 1 cbr 210 ------- 0 0.0 1.0 117 117
- 0.53875 0 1 cbr 210 ------- 0 0.0 1.0 117 117
r 0.541086 0 1 cbr 210 ------- 0 0.0 1.0 117 117
+ 0.5425 0 1 cbr 210 ------- 0 0.0 1.0 118 118
- 0.5425 0 1 cbr 210 ------- 0 0.0 1.0 118 118
r 0.544836 0 1 cbr 210 ------- 0 0.0 1.0 118 118
+ 0.54625 0 1 cbr 210 ------- 0 0.0 1.0 119 119
- 0.54625 0 1 cbr 210 ------- 0 0.0 1.0 119 119
r 0.548586 0 1 cbr 210 ------- 0 0.0 1.0 119 119
+ 0.55 0 1 cbr 210 ------- 0 0.0 1.0 120 120
- 0.55 0 1 cbr 210 ------- 0 0.0 1.0 120 120
r 0.552336 0 1 cbr 210 ------- 0 0.0 1.0 120 120
+ 0.55375 0 1 cbr 210 ------- 0 0.0 1.0 121 121
- 0.55375 0 1 cbr 210 ------- 0 0.0 1.0 121 121
r 0.556086 0 1 cbr 210 ------- 0 0.0 1.0 121 121
+ 0.5575 0 1 cbr 210 ------- 0 0.0 1.0 122 122
- 0.5575 0 1 cbr 210 ------- 0 0.0 1.0 122 122
r 0.559836 0 1 cbr 210 ------- 0 0.0 1.0 122 122
+ 0.56125 0 1 cbr 210 ------- 0 0.0 1.0 123 123
- 0.56125 0 1 cbr 210 ------- 0 0.0 1.0 123 123
r 0.563586 0 1 cbr 210 ------- 0 0.0 1.0 123 123
+ 0.565 0 1 cbr 210 ------- 0 0.0 1.0 124 124
- 0.565 0 1 cbr 210 ------- 0 0.0 1.0 124 124
r 0.567336 0 1 cbr 210 ------- 0 0.0 1.0 124 124
+ 0.56875 0 1 cbr 210 ------- 0 0.0 1.0 125 125
- 0.56875 0 1 cbr 210 ------- 0 0.0 1.0 125 125
r 0.571086 0 1 cbr 210 ------- 0 0.0 1.0 125 125
+ 0.5725 0 1 cbr 210 ------- 0 0.0 1.0 126 126
- 0.5725 0 1 cbr 210 ------- 0 0.0 1.0 126 126
r 0.574836 0 1 cbr 210 ------- 0 0.0 1.0 126 126
+ 0.57625 0 1 cbr 210 ------- 0 0.0 1.0 127 127
- 0.57625 0 1 cbr 210 ------- 0 0.0 1.0 127 127
r 0.578586 0 1 cbr 210 ------- 0 0.0 1.0 127 127
+ 0.58 0 1 cbr 210 ------- 0 0.0 1.0 128 128
- 0.58 0 1 cbr 210 ------- 0 0.0 1.0 128 128
r 0.582336 0 1 cbr 210 ------- 0 0.0 1.0 128 128
+ 0.58375 0 1 cbr 210 ------- 0 0.0 1.0 129 129
- 0.58375 0 1 cbr 210 ------- 0 0.0 1.0 129 129
r 0.586086 0 1 cbr 210 ------- 0 0.0 1.0 129 129
+ 0.5875 0 1 cbr 210 ------- 0 0.0 1.0 130 130
- 0.5875 0 1 cbr 210 ------- 0 0.0 1.0 130 130
r 0.589836 0 1 cbr 210 ------- 0 0.0 1.0 130 130
+ 0.59125 0 1 cbr 210 ------- 0 0.0 1.0 131 131
- 0.59125 0 1 cbr 210 ------- 0 0.0 1.0 131 131
r 0.593586 0 1 cbr 210 ------- 0 0.0 1.0 131 131
+ 0.595 0 1 cbr 210 ------- 0 0.0 1.0 132 132
- 0.595 0 1 cbr 210 ------- 0 0.0 1.0 132 132
r 0.597336 0 1 cbr 210 ------- 0 0.0 1.0 132 132
+ 0.59875 0 1 cbr 210 ------- 0 0.0 1.0 133 133
- 0.59875 0 1 cbr 210 ------- 0 0.0 1.0 133 133
r 0.601086 0 1 cbr 210 ------- 0 0.0 1.0 133 133
+ 0.6025 0 1 cbr 210 ------- 0 0.0 1.0 134 134
- 0.6025 0 1 cbr 210 ------- 0 0.0 1.0 134 134
r 0.604836 0 1 cbr 210 ------- 0 0.0 1.0 134 134
+ 0.60625 0 1 cbr 210 ------- 0 0.0 1.0 135 135
- 0.60625 0 1 cbr 210 ------- 0 0.0 1.0 135 135
r 0.608586 0 1 cbr 210 ------- 0 0.0 1.0 135 135
+ 0.61 0 1 cbr 210 ------- 0 0.0 1.0 136 136
- 0.61 0 1 cbr 210 ------- 0 0.0 1.0 136 136
r 0.612336 0 1 cbr 210 ------- 0 0.0 1.0 136 136
+ 0.61375 0 1 cbr 210 ------- 0 0.0 1.0 137 137
- 0.61375 0 1 cbr 210 ------- 0 0.0 1.0 137 137
r 0.616086 0 1 cbr 210 ------- 0 0.0 1.0 137 137
+ 0.6175 0 1 cbr 210 ------- 0 0.0 1.0 138 138
- 0.6175 0 1 cbr 210 ------- 0 0.0 1.0 138 138
r 0.619836 0 1 cbr 210 ------- 0 0.0 1.0 138 138
+ 0.62125 0 1 cbr 210 ------- 0 0.0 1.0 139 139
- 0.62125 0 1 cbr 210 ------- 0 0.0 1.0 139 139
r 0.623586 0 1 cbr 210 ------- 0 0.0 1.0 139 139
+ 0.625 0 1 cbr 210 ------- 0 0.0 1.0 140 140
- 0.625 0 1 cbr 210 ------- 0 0.0 1.0 140 140
r 0.627336 0 1 cbr 210 ------- 0 0.0 1.0 140 140
+ 0.62875 0 1 cbr 210 ------- 0 0.0 1.0 141 141
- 0.62875 0 1 cbr 210 ------- 0 0.0 1.0 141 141
r 0.631086 0 1 cbr 210 ------- 0 0.0 1.0 141 141
+ 0.6325 0 1 cbr 210 ------- 0 0.0 1.0 142 142
- 0.6325 0 1 cbr 210 ------- 0 0.0 1.0 142 142
r 0.634836 0 1 cbr 210 ------- 0 0.0 1.0 142 142
+ 0.63625 0 1 cbr 210 ------- 0 0.0 1.0 143 143
- 0.63625 0 1 cbr 210 ------- 0 0.0 1.0 143 143
r 0.638586 0 1 cbr 210 ------- 0 0.0 1.0 143 143
+ 0.64 0 1 cbr 210 ------- 0 0.0 1.0 144 144
- 0.64 0 1 cbr 210 ------- 0 0.0 1.0 144 144
r 0.642336 0 1 cbr 210 ------- 0 0.0 1.0 144 144
+ 0.64375 0 1 cbr 210 ------- 0 0.0 1.0 145 145
- 0.64375 0 1 cbr 210 ------- 0 0.0 1.0 145 145
r 0.646086 0 1 cbr 210 ------- 0 0.0 1.0 145 145
+ 0.6475 0 1 cbr 210 ------- 0 0.0 1.0 146 146
- 0.6475 0 1 cbr 210 ------- 0 0.0 1.0 146 146
r 0.649836 0 1 cbr 210 ------- 0 0.0 1.0 146 146
+ 0.65125 0 1 cbr 210 ------- 0 0.0 1.0 147 147
- 0.65125 0 1 cbr 210 ------- 0 0.0 1.0 147 147
r 0.653586 0 1 cbr 210 ------- 0 0.0 1.0 147 147
+ 0.655 0 1 cbr 210 ------- 0 0.0 1.0 148 148
- 0.655 0 1 cbr 210 ------- 0 0.0 1.0 148 148
r 0.657336 0 1 cbr 210 ------- 0 0.0 1.0 148 148
+ 0.65875 0 1 cbr 210 ------- 0 0.0 1.0 149 149
- 0.65875 0 1 cbr 210 ------- 0 0.0 1.0 149 149
r 0.661086 0 1 cbr 210 ------- 0 0.0 1.0 149 149
+ 0.6625 0 1 cbr 210 ------- 0 0.0 1.0 150 150
- 0.6625 0 1 cbr 210 ------- 0 0.0 1.0 150 150
r 0.664836 0 1 cbr 210 ------- 0 0.0 1.0 150 150
+ 0.66625 0 1 cbr 210 ------- 0 0.0 1.0 151 151
- 0.66625 0 1 cbr 210 ------- 0 0.0 1.0 151 151
r 0.668586 0 1 cbr 210 ------- 0 0.0 1.0 151 151
+ 0.67 0 1 cbr 210 ------- 0 0.0 1.0 152 152
- 0.67 0 1 cbr 210 ------- 0 0.0 1.0 152 152
r 0.672336 0 1 cbr 210 ------- 0 0.0 1.0 152 152
+ 0.67375 0 1 cbr 210 ------- 0 0.0 1.0 153 153
- 0.67375 0 1 cbr 210 ------- 0 0.0 1.0 153 153
r 0.676086 0 1 cbr 210 ------- 0 0.0 1.0 153 153
+ 0.6775 0 1 cbr 210 ------- 0 0.0 1.0 154 154
- 0.6775 0 1 cbr 210 ------- 0 0.0 1.0 154 154
r 0.679836 0 1 cbr 210 ------- 0 0.0 1.0 154 154
+ 0.68125 0 1 cbr 210 ------- 0 0.0 1.0 155 155
- 0.68125 0 1 cbr 210 ------- 0 0.0 1.0 155 155
r 0.683586 0 1 cbr 210 ------- 0 0.0 1.0 155 155
+ 0.685 0 1 cbr 210 ------- 0 0.0 1.0 156 156
- 0.685 0 1 cbr 210 ------- 0 0.0 1.0 156 156
r 0.687336 0 1 cbr 210 ------- 0 0.0 1.0 156 156
+ 0.68875 0 1 cbr 210 ------- 0 0.0 1.0 157 157
- 0.68875 0 1 cbr 210 ------- 0 0.0 1.0 157 157
r 0.691086 0 1 cbr 210 ------- 0 0.0 1.0 157 157
+ 0.6925 0 1 cbr 210 ------- 0 0.0 1.0 158 158
- 0.6925 0 1 cbr 210 ------- 0 0.0 1.0 158 158
r 0.694836 0 1 cbr 210 ------- 0 0.0 1.0 158 158
+ 0.69625 0 1 cbr 210 ------- 0 0.0 1.0 159 159
- 0.69625 0 1 cbr 210 ------- 0 0.0 1.0 159 159
r 0.698586 0 1 cbr 210 ------- 0 0.0 1.0 159 159
+ 0.7 0 1 cbr 210 ------- 0 0.0 1.0 160 160
- 0.7 0 1 cbr 210 ------- 0 0.0 1.0 160 160
r 0.702336 0 1 cbr 210 ------- 0 0.0 1.0 160 160
+ 0.70375 0 1 cbr 210 ------- 0 0.0 1.0 161 161
- 0.70375 0 1 cbr 210 ------- 0 0.0 1.0 161 161
r 0.706086 0 1 cbr 210 ------- 0 0.0 1.0 161 161
+ 0.7075 0 1 cbr 210 ------- 0 0.0 1.0 162 162
- 0.7075 0 1 cbr 210 ------- 0 0.0 1.0 162 162
r 0.709836 0 1 cbr 210 ------- 0 0.0 1.0 162 162
+ 0.71125 0 1 cbr 210 ------- 0 0.0 1.0 163 163
- 0.71125 0 1 cbr 210 ------- 0 0.0 1.0 163 163
r 0.713586 0 1 cbr 210 ------- 0 0.0 1.0 163 163
+ 0.715 0 1 cbr 210 ------- 0 0.0 1.0 164 164
- 0.715 0 1 cbr 210 ------- 0 0.0 1.0 164 164
r 0.717336 0 1 cbr 210 ------- 0 0.0 1.0 164 164
+ 0.71875 0 1 cbr 210 ------- 0 0.0 1.0 165 165
- 0.71875 0 1 cbr 210 ------- 0 0.0 1.0 165 165
r 0.721086 0 1 cbr 210 ------- 0 0.0 1.0 165 165
+ 0.7225 0 1 cbr 210 ------- 0 0.0 1.0 166 166
- 0.7225 0 1 cbr 210 ------- 0 0.0 1.0 166 166
r 0.724836 0 1 cbr 210 ------- 0 0.0 1.0 166 166
+ 0.72625 0 1 cbr 210 ------- 0 0.0 1.0 167 167
- 0.72625 0 1 cbr 210 ------- 0 0.0 1.0 167 167
r 0.728586 0 1 cbr 210 ------- 0 0.0 1.0 167 167
+ 0.73 0 1 cbr 210 ------- 0 0.0 1.0 168 168
- 0.73 0 1 cbr 210 ------- 0 0.0 1.0 168 168
r 0.732336 0 1 cbr 210 ------- 0 0.0 1.0 168 168
+ 0.73375 0 1 cbr 210 ------- 0 0.0 1.0 169 169
- 0.73375 0 1 cbr 210 ------- 0 0.0 1.0 169 169
r 0.736086 0 1 cbr 210 ------- 0 0.0 1.0 169 169
+ 0.7375 0 1 cbr 210 ------- 0 0.0 1.0 170 170
- 0.7375 0 1 cbr 210 ------- 0 0.0 1.0 170 170
r 0.739836 0 1 cbr 210 ------- 0 0.0 1.0 170 170
+ 0.74125 0 1 cbr 210 ------- 0 0.0 1.0 171 171
- 0.74125 0 1 cbr 210 ------- 0 0.0 1.0 171 171
r 0.743586 0 1 cbr 210 ------- 0 0.0 1.0 171 171
+ 0.745 0 1 cbr 210 ------- 0 0.0 1.0 172 172
- 0.745 0 1 cbr 210 ------- 0 0.0 1.0 172 172
r 0.747336 0 1 cbr 210 ------- 0 0.0 1.0 172 172
+ 0.74875 0 1 cbr 210 ------- 0 0.0 1.0 173 173
- 0.74875 0 1 cbr 210 ------- 0 0.0 1.0 173 173
r 0.751086 0 1 cbr 210 ------- 0 0.0 1.0 173 173
+ 0.7525 0 1 cbr 210 ------- 0 0.0 1.0 174 174
- 0.7525 0 1 cbr 210 ------- 0 0.0 1.0 174 174
r 0.754836 0 1 cbr 210 ------- 0 0.0 1.0 174 174
+ 0.75625 0 1 cbr 210 ------- 0 0.0 1.0 175 175
- 0.75625 0 1 cbr 210 ------- 0 0.0 1.0 175 175
r 0.758586 0 1 cbr 210 ------- 0 0.0 1.0 175 175
+ 0.76 0 1 cbr 210 ------- 0 0.0 1.0 176 176
- 0.76 0 1 cbr 210 ------- 0 0.0 1.0 176 176
r 0.762336 0 1 cbr 210 ------- 0 0.0 1.0 176 176
+ 0.76375 0 1 cbr 210 ------- 0 0.0 1.0 177 177
- 0.76375 0 1 cbr 210 ------- 0 0.0 1.0 177 177
r 0.766086 0 1 cbr 210 ------- 0 0.0 1.0 177 177
+ 0.7675 0 1 cbr 210 ------- 0 0.0 1.0 178 178
- 0.7675 0 1 cbr 210 ------- 0 0.0 1.0 178 178
r 0.769836 0 1 cbr 210 ------- 0 0.0 1.0 178 178
+ 0.77125 0 1 cbr 210 ------- 0 0.0 1.0 179 179
- 0.77125 0 1 cbr 210 ------- 0 0.0 1.0 179 179
r 0.773586 0 1 cbr 210 ------- 0 0.0 1.0 179 179
+ 0.775 0 1 cbr 210 ------- 0 0.0 1.0 180 180
- 0.775 0 1 cbr 210 ------- 0 0.0 1.0 180 180
r 0.777336 0 1 cbr 210 ------- 0 0.0 1.0 180 180
+ 0.77875 0 1 cbr 210 ------- 0 0.0 1.0 181 181
- 0.77875 0 1 cbr 210 ------- 0 0.0 1.0 181 181
r 0.781086 0 1 cbr 210 ------- 0 0.0 1.0 181 181
+ 0.7825 0 1 cbr 210 ------- 0 0.0 1.0 182 182
- 0.7825 0 1 cbr 210 ------- 0 0.0 1.0 182 182
r 0.784836 0 1 cbr 210 ------- 0 0.0 1.0 182 182
+ 0.78625 0 1 cbr 210 ------- 0 0.0 1.0 183 183
- 0.78625 0 1 cbr 210 ------- 0 0.0 1.0 183 183
r 0.788586 0 1 cbr 210 ------- 0 0.0 1.0 183 183
+ 0.79 0 1 cbr 210 ------- 0 0.0 1.0 184 184
- 0.79 0 1 cbr 210 ------- 0 0.0 1.0 184 184
r 0.792336 0 1 cbr 210 ------- 0 0.0 1.0 184 184
+ 0.79375 0 1 cbr 210 ------- 0 0.0 1.0 185 185
- 0.79375 0 1 cbr 210 ------- 0 0.0 1.0 185 185
r 0.796086 0 1 cbr 210 ------- 0 0.0 1.0 185 185
+ 0.7975 0 1 cbr 210 ------- 0 0.0 1.0 186 186
- 0.7975 0 1 cbr 210 ------- 0 0.0 1.0 186 186
r 0.799836 0 1 cbr 210 ------- 0 0.0 1.0 186 186
+ 0.80125 0 1 cbr 210 ------- 0 0.0 1.0 187 187
- 0.80125 0 1 cbr 210 ------- 0 0.0 1.0 187 187
r 0.803586 0 1 cbr 210 ------- 0 0.0 1.0 187 187
+ 0.805 0 1 cbr 210 ------- 0 0.0 1.0 188 188
- 0.805 0 1 cbr 210 ------- 0 0.0 1.0 188 188
r 0.807336 0 1 cbr 210 ------- 0 0.0 1.0 188 188
+ 0.80875 0 1 cbr 210 ------- 0 0.0 1.0 189 189
- 0.80875 0 1 cbr 210 ------- 0 0.0 1.0 189 189
r 0.811086 0 1 cbr 210 ------- 0 0.0 1.0 189 189
+ 0.8125 0 1 cbr 210 ------- 0 0.0 1.0 190 190
- 0.8125 0 1 cbr 210 ------- 0 0.0 1.0 190 190
r 0.814836 0 1 cbr 210 ------- 0 0.0 1.0 190 190
+ 0.81625 0 1 cbr 210 ------- 0 0.0 1.0 191 191
- 0.81625 0 1 cbr 210 ------- 0 0.0 1.0 191 191
r 0.818586 0 1 cbr 210 ------- 0 0.0 1.0 191 191
+ 0.82 0 1 cbr 210 ------- 0 0.0 1.0 192 192
- 0.82 0 1 cbr 210 ------- 0 0.0 1.0 192 192
r 0.822336 0 1 cbr 210 ------- 0 0.0 1.0 192 192
+ 0.82375 0 1 cbr 210 ------- 0 0.0 1.0 193 193
- 0.82375 0 1 cbr 210 ------- 0 0.0 1.0 193 193
r 0.826086 0 1 cbr 210 ------- 0 0.0 1.0 193 193
+ 0.8275 0 1 cbr 210 ------- 0 0.0 1.0 194 194
- 0.8275 0 1 cbr 210 ------- 0 0.0 1.0 194 194
r 0.829836 0 1 cbr 210 ------- 0 0.0 1.0 194 194
+ 0.83125 0 1 cbr 210 ------- 0 0.0 1.0 195 195
- 0.83125 0 1 cbr 210 ------- 0 0.0 1.0 195 195
r 0.833586 0 1 cbr 210 ------- 0 0.0 1.0 195 195
+ 0.835 0 1 cbr 210 ------- 0 0.0 1.0 196 196
- 0.835 0 1 cbr 210 ------- 0 0.0 1.0 196 196
r 0.837336 0 1 cbr 210 ------- 0 0.0 1.0 196 196
+ 0.83875 0 1 cbr 210 ------- 0 0.0 1.0 197 197
- 0.83875 0 1 cbr 210 ------- 0 0.0 1.0 197 197
r 0.841086 0 1 cbr 210 ------- 0 0.0 1.0 197 197
+ 0.8425 0 1 cbr 210 ------- 0 0.0 1.0 198 198
- 0.8425 0 1 cbr 210 ------- 0 0.0 1.0 198 198
r 0.844836 0 1 cbr 210 ------- 0 0.0 1.0 198 198
+ 0.84625 0 1 cbr 210 ------- 0 0.0 1.0 199 199
- 0.84625 0 1 cbr 210 ------- 0 0.0 1.0 199 199
r 0.848586 0 1 cbr 210 ------- 0 0.0 1.0 199 199
+ 0.85 0 1 cbr 210 ------- 0 0.0 1.0 200 200
- 0.85 0 1 cbr 210 ------- 0 0.0 1.0 200 200
r 0.852336 0 1 cbr 210 ------- 0 0.0 1.0 200 200
+ 0.85375 0 1 cbr 210 ------- 0 0.0 1.0 201 201
- 0.85375 0 1 cbr 210 ------- 0 0.0 1.0 201 201
r 0.856086 0 1 cbr 210 ------- 0 0.0 1.0 201 201
+ 0.8575 0 1 cbr 210 ------- 0 0.0 1.0 202 202
- 0.8575 0 1 cbr 210 ------- 0 0.0 1.0 202 202
r 0.859836 0 1 cbr 210 ------- 0 0.0 1.0 202 202
+ 0.86125 0 1 cbr 210 ------- 0 0.0 1.0 203 203
- 0.86125 0 1 cbr 210 ------- 0 0.0 1.0 203 203
r 0.863586 0 1 cbr 210 ------- 0 0.0 1.0 203 203
+ 0.865 0 1 cbr 210 ------- 0 0.0 1.0 204 204
- 0.865 0 1 cbr 210 ------- 0 0.0 1.0 204 204
r 0.867336 0 1 cbr 210 ------- 0 0.0 1.0 204 204
+ 0.86875 0 1 cbr 210 ------- 0 0.0 1.0 205 205
- 0.86875 0 1 cbr 210 ------- 0 0.0 1.0 205 205
r 0.871086 0 1 cbr 210 ------- 0 0.0 1.0 205 205
+ 0.8725 0 1 cbr 210 ------- 0 0.0 1.0 206 206
- 0.8725 0 1 cbr 210 ------- 0 0.0 1.0 206 206
r 0.874836 0 1 cbr 210 ------- 0 0.0 1.0 206 206
+ 0.87625 0 1 cbr 210 ------- 0 0.0 1.0 207 207
- 0.87625 0 1 cbr 210 ------- 0 0.0 1.0 207 207
r 0.878586 0 1 cbr 210 ------- 0 0.0 1.0 207 207
+ 0.88 0 1 cbr 210 ------- 0 0.0 1.0 208 208
- 0.88 0 1 cbr 210 ------- 0 0.0 1.0 208 208
r 0.882336 0 1 cbr 210 ------- 0 0.0 1.0 208 208
+ 0.88375 0 1 cbr 210 ------- 0 0.0 1.0 209 209
- 0.88375 0 1 cbr 210 ------- 0 0.0 1.0 209 209
r 0.886086 0 1 cbr 210 ------- 0 0.0 1.0 209 209
+ 0.8875 0 1 cbr 210 ------- 0 0.0 1.0 210 210
- 0.8875 0 1 cbr 210 ------- 0 0.0 1.0 210 210
r 0.889836 0 1 cbr 210 ------- 0 0.0 1.0 210 210
+ 0.89125 0 1 cbr 210 ------- 0 0.0 1.0 211 211
- 0.89125 0 1 cbr 210 ------- 0 0.0 1.0 211 211
r 0.893586 0 1 cbr 210 ------- 0 0.0 1.0 211 211
+ 0.895 0 1 cbr 210 ------- 0 0.0 1.0 212 212
- 0.895 0 1 cbr 210 ------- 0 0.0 1.0 212 212
r 0.897336 0 1 cbr 210 ------- 0 0.0 1.0 212 212
+ 0.89875 0 1 cbr 210 ------- 0 0.0 1.0 213 213
- 0.89875 0 1 cbr 210 ------- 0 0.0 1.0 213 213
r 0.901086 0 1 cbr 210 ------- 0 0.0 1.0 213 213